+ 0.1 0 1 tcp 40 ------- 40 0.0 1.0 0 0
- 0.1 0 1 tcp 40 ------- 40 0.0 1.0 0 0
r 0.120032 0 1 tcp 40 ------- 40 0.0 1.0 0 0
+ 0.120032 1 0 ack 40 ------- 40 1.0 0.0 0 1
- 0.120032 1 0 ack 40 ------- 40 1.0 0.0 0 1
r 0.140064 1 0 ack 40 ------- 40 1.0 0.0 0 1
+ 0.140064 0 1 tcp 1040 ------- 40 0.0 1.0 1 2
- 0.140064 0 1 tcp 1040 ------- 40 0.0 1.0 1 2
+ 0.140064 0 1 tcp 1040 ------- 40 0.0 1.0 2 3
- 0.140896 0 1 tcp 1040 ------- 40 0.0 1.0 2 3
r 0.160896 0 1 tcp 1040 ------- 40 0.0 1.0 1 2
+ 0.160896 1 0 ack 40 ------- 40 1.0 0.0 1 4
- 0.160896 1 0 ack 40 ------- 40 1.0 0.0 1 4
r 0.161728 0 1 tcp 1040 ------- 40 0.0 1.0 2 3
+ 0.161728 1 0 ack 40 ------- 40 1.0 0.0 2 5
- 0.161728 1 0 ack 40 ------- 40 1.0 0.0 2 5
r 0.180928 1 0 ack 40 ------- 40 1.0 0.0 1 4
+ 0.180928 0 1 tcp 1040 ------- 40 0.0 1.0 3 6
- 0.180928 0 1 tcp 1040 ------- 40 0.0 1.0 3 6
+ 0.180928 0 1 tcp 1040 ------- 40 0.0 1.0 4 7
r 0.18176 1 0 ack 40 ------- 40 1.0 0.0 2 5
+ 0.18176 0 1 tcp 1040 ------- 40 0.0 1.0 5 8
+ 0.18176 0 1 tcp 1040 ------- 40 0.0 1.0 6 9
- 0.18176 0 1 tcp 1040 ------- 40 0.0 1.0 4 7
- 0.182592 0 1 tcp 1040 ------- 40 0.0 1.0 5 8
- 0.183424 0 1 tcp 1040 ------- 40 0.0 1.0 6 9
+ 0.2 0 2 tcp 40 ------- 41 0.1 2.0 0 10
- 0.2 0 2 tcp 40 ------- 41 0.1 2.0 0 10
r 0.20176 0 1 tcp 1040 ------- 40 0.0 1.0 3 6
+ 0.20176 1 0 ack 40 ------- 40 1.0 0.0 3 11
- 0.20176 1 0 ack 40 ------- 40 1.0 0.0 3 11
r 0.202592 0 1 tcp 1040 ------- 40 0.0 1.0 4 7
+ 0.202592 1 0 ack 40 ------- 40 1.0 0.0 4 12
- 0.202592 1 0 ack 40 ------- 40 1.0 0.0 4 12
r 0.203424 0 1 tcp 1040 ------- 40 0.0 1.0 5 8
+ 0.203424 1 0 ack 40 ------- 40 1.0 0.0 5 13
- 0.203424 1 0 ack 40 ------- 40 1.0 0.0 5 13
r 0.204256 0 1 tcp 1040 ------- 40 0.0 1.0 6 9
+ 0.204256 1 0 ack 40 ------- 40 1.0 0.0 6 14
- 0.204256 1 0 ack 40 ------- 40 1.0 0.0 6 14
r 0.210064 0 2 tcp 40 ------- 41 0.1 2.0 0 10
+ 0.210064 2 0 ack 40 ------- 41 2.0 0.1 0 15
- 0.210064 2 0 ack 40 ------- 41 2.0 0.1 0 15
r 0.220128 2 0 ack 40 ------- 41 2.0 0.1 0 15
+ 0.220128 0 2 tcp 1040 ------- 41 0.1 2.0 1 16
- 0.220128 0 2 tcp 1040 ------- 41 0.1 2.0 1 16
+ 0.220128 0 2 tcp 1040 ------- 41 0.1 2.0 2 17
r 0.221792 1 0 ack 40 ------- 40 1.0 0.0 3 11
+ 0.221792 0 1 tcp 1040 ------- 40 0.0 1.0 7 18
- 0.221792 0 1 tcp 1040 ------- 40 0.0 1.0 7 18
+ 0.221792 0 1 tcp 1040 ------- 40 0.0 1.0 8 19
- 0.221792 0 2 tcp 1040 ------- 41 0.1 2.0 2 17
r 0.222624 1 0 ack 40 ------- 40 1.0 0.0 4 12
+ 0.222624 0 1 tcp 1040 ------- 40 0.0 1.0 9 20
+ 0.222624 0 1 tcp 1040 ------- 40 0.0 1.0 10 21
- 0.222624 0 1 tcp 1040 ------- 40 0.0 1.0 8 19
r 0.223456 1 0 ack 40 ------- 40 1.0 0.0 5 13
+ 0.223456 0 1 tcp 1040 ------- 40 0.0 1.0 11 22
+ 0.223456 0 1 tcp 1040 ------- 40 0.0 1.0 12 23
- 0.223456 0 1 tcp 1040 ------- 40 0.0 1.0 9 20
r 0.224288 1 0 ack 40 ------- 40 1.0 0.0 6 14
+ 0.224288 0 1 tcp 1040 ------- 40 0.0 1.0 13 24
+ 0.224288 0 1 tcp 1040 ------- 40 0.0 1.0 14 25
- 0.224288 0 1 tcp 1040 ------- 40 0.0 1.0 10 21
- 0.22512 0 1 tcp 1040 ------- 40 0.0 1.0 11 22
- 0.225952 0 1 tcp 1040 ------- 40 0.0 1.0 12 23
- 0.226784 0 1 tcp 1040 ------- 40 0.0 1.0 13 24
- 0.227616 0 1 tcp 1040 ------- 40 0.0 1.0 14 25
r 0.231792 0 2 tcp 1040 ------- 41 0.1 2.0 1 16
+ 0.231792 2 0 ack 40 ------- 41 2.0 0.1 1 26
- 0.231792 2 0 ack 40 ------- 41 2.0 0.1 1 26
r 0.233456 0 2 tcp 1040 ------- 41 0.1 2.0 2 17
+ 0.233456 2 0 ack 40 ------- 41 2.0 0.1 2 27
- 0.233456 2 0 ack 40 ------- 41 2.0 0.1 2 27
r 0.241856 2 0 ack 40 ------- 41 2.0 0.1 1 26
+ 0.241856 0 2 tcp 1040 ------- 41 0.1 2.0 3 28
- 0.241856 0 2 tcp 1040 ------- 41 0.1 2.0 3 28
+ 0.241856 0 2 tcp 1040 ------- 41 0.1 2.0 4 29
r 0.242624 0 1 tcp 1040 ------- 40 0.0 1.0 7 18
+ 0.242624 1 0 ack 40 ------- 40 1.0 0.0 7 30
- 0.242624 1 0 ack 40 ------- 40 1.0 0.0 7 30
r 0.243456 0 1 tcp 1040 ------- 40 0.0 1.0 8 19
+ 0.243456 1 0 ack 40 ------- 40 1.0 0.0 8 31
- 0.243456 1 0 ack 40 ------- 40 1.0 0.0 8 31
r 0.24352 2 0 ack 40 ------- 41 2.0 0.1 2 27
+ 0.24352 0 2 tcp 1040 ------- 41 0.1 2.0 5 32
+ 0.24352 0 2 tcp 1040 ------- 41 0.1 2.0 6 33
- 0.24352 0 2 tcp 1040 ------- 41 0.1 2.0 4 29
r 0.244288 0 1 tcp 1040 ------- 40 0.0 1.0 9 20
+ 0.244288 1 0 ack 40 ------- 40 1.0 0.0 9 34
- 0.244288 1 0 ack 40 ------- 40 1.0 0.0 9 34
r 0.24512 0 1 tcp 1040 ------- 40 0.0 1.0 10 21
+ 0.24512 1 0 ack 40 ------- 40 1.0 0.0 10 35
- 0.24512 1 0 ack 40 ------- 40 1.0 0.0 10 35
- 0.245184 0 2 tcp 1040 ------- 41 0.1 2.0 5 32
r 0.245952 0 1 tcp 1040 ------- 40 0.0 1.0 11 22
+ 0.245952 1 0 ack 40 ------- 40 1.0 0.0 11 36
- 0.245952 1 0 ack 40 ------- 40 1.0 0.0 11 36
r 0.246784 0 1 tcp 1040 ------- 40 0.0 1.0 12 23
+ 0.246784 1 0 ack 40 ------- 40 1.0 0.0 12 37
- 0.246784 1 0 ack 40 ------- 40 1.0 0.0 12 37
- 0.246848 0 2 tcp 1040 ------- 41 0.1 2.0 6 33
r 0.247616 0 1 tcp 1040 ------- 40 0.0 1.0 13 24
+ 0.247616 1 0 ack 40 ------- 40 1.0 0.0 13 38
- 0.247616 1 0 ack 40 ------- 40 1.0 0.0 13 38
r 0.248448 0 1 tcp 1040 ------- 40 0.0 1.0 14 25
+ 0.248448 1 0 ack 40 ------- 40 1.0 0.0 14 39
- 0.248448 1 0 ack 40 ------- 40 1.0 0.0 14 39
r 0.25352 0 2 tcp 1040 ------- 41 0.1 2.0 3 28
+ 0.25352 2 0 ack 40 ------- 41 2.0 0.1 3 40
- 0.25352 2 0 ack 40 ------- 41 2.0 0.1 3 40
r 0.255184 0 2 tcp 1040 ------- 41 0.1 2.0 4 29
+ 0.255184 2 0 ack 40 ------- 41 2.0 0.1 4 41
- 0.255184 2 0 ack 40 ------- 41 2.0 0.1 4 41
r 0.256848 0 2 tcp 1040 ------- 41 0.1 2.0 5 32
+ 0.256848 2 0 ack 40 ------- 41 2.0 0.1 5 42
- 0.256848 2 0 ack 40 ------- 41 2.0 0.1 5 42
r 0.258512 0 2 tcp 1040 ------- 41 0.1 2.0 6 33
+ 0.258512 2 0 ack 40 ------- 41 2.0 0.1 6 43
- 0.258512 2 0 ack 40 ------- 41 2.0 0.1 6 43
r 0.262656 1 0 ack 40 ------- 40 1.0 0.0 7 30
+ 0.262656 0 1 tcp 1040 ------- 40 0.0 1.0 15 44
- 0.262656 0 1 tcp 1040 ------- 40 0.0 1.0 15 44
+ 0.262656 0 1 tcp 1040 ------- 40 0.0 1.0 16 45
r 0.263488 1 0 ack 40 ------- 40 1.0 0.0 8 31
+ 0.263488 0 1 tcp 1040 ------- 40 0.0 1.0 17 46
+ 0.263488 0 1 tcp 1040 ------- 40 0.0 1.0 18 47
- 0.263488 0 1 tcp 1040 ------- 40 0.0 1.0 16 45
r 0.263584 2 0 ack 40 ------- 41 2.0 0.1 3 40
+ 0.263584 0 2 tcp 1040 ------- 41 0.1 2.0 7 48
- 0.263584 0 2 tcp 1040 ------- 41 0.1 2.0 7 48
+ 0.263584 0 2 tcp 1040 ------- 41 0.1 2.0 8 49
r 0.26432 1 0 ack 40 ------- 40 1.0 0.0 9 34
+ 0.26432 0 1 tcp 1040 ------- 40 0.0 1.0 19 50
+ 0.26432 0 1 tcp 1040 ------- 40 0.0 1.0 20 51
- 0.26432 0 1 tcp 1040 ------- 40 0.0 1.0 17 46
r 0.265152 1 0 ack 40 ------- 40 1.0 0.0 10 35
+ 0.265152 0 1 tcp 1040 ------- 40 0.0 1.0 21 52
+ 0.265152 0 1 tcp 1040 ------- 40 0.0 1.0 22 53
- 0.265152 0 1 tcp 1040 ------- 40 0.0 1.0 18 47
r 0.265248 2 0 ack 40 ------- 41 2.0 0.1 4 41
+ 0.265248 0 2 tcp 1040 ------- 41 0.1 2.0 9 54
+ 0.265248 0 2 tcp 1040 ------- 41 0.1 2.0 10 55
- 0.265248 0 2 tcp 1040 ------- 41 0.1 2.0 8 49
r 0.265984 1 0 ack 40 ------- 40 1.0 0.0 11 36
+ 0.265984 0 1 tcp 1040 ------- 40 0.0 1.0 23 56
+ 0.265984 0 1 tcp 1040 ------- 40 0.0 1.0 24 57
- 0.265984 0 1 tcp 1040 ------- 40 0.0 1.0 19 50
r 0.266816 1 0 ack 40 ------- 40 1.0 0.0 12 37
+ 0.266816 0 1 tcp 1040 ------- 40 0.0 1.0 25 58
+ 0.266816 0 1 tcp 1040 ------- 40 0.0 1.0 26 59
- 0.266816 0 1 tcp 1040 ------- 40 0.0 1.0 20 51
r 0.266912 2 0 ack 40 ------- 41 2.0 0.1 5 42
+ 0.266912 0 2 tcp 1040 ------- 41 0.1 2.0 11 60
+ 0.266912 0 2 tcp 1040 ------- 41 0.1 2.0 12 61
- 0.266912 0 2 tcp 1040 ------- 41 0.1 2.0 9 54
r 0.267648 1 0 ack 40 ------- 40 1.0 0.0 13 38
+ 0.267648 0 1 tcp 1040 ------- 40 0.0 1.0 27 62
+ 0.267648 0 1 tcp 1040 ------- 40 0.0 1.0 28 63
- 0.267648 0 1 tcp 1040 ------- 40 0.0 1.0 21 52
r 0.26848 1 0 ack 40 ------- 40 1.0 0.0 14 39
+ 0.26848 0 1 tcp 1040 ------- 40 0.0 1.0 29 64
+ 0.26848 0 1 tcp 1040 ------- 40 0.0 1.0 30 65
- 0.26848 0 1 tcp 1040 ------- 40 0.0 1.0 22 53
r 0.268576 2 0 ack 40 ------- 41 2.0 0.1 6 43
+ 0.268576 0 2 tcp 1040 ------- 41 0.1 2.0 13 66
+ 0.268576 0 2 tcp 1040 ------- 41 0.1 2.0 14 67
- 0.268576 0 2 tcp 1040 ------- 41 0.1 2.0 10 55
- 0.269312 0 1 tcp 1040 ------- 40 0.0 1.0 23 56
- 0.270144 0 1 tcp 1040 ------- 40 0.0 1.0 24 57
- 0.27024 0 2 tcp 1040 ------- 41 0.1 2.0 11 60
- 0.270976 0 1 tcp 1040 ------- 40 0.0 1.0 25 58
- 0.271808 0 1 tcp 1040 ------- 40 0.0 1.0 26 59
- 0.271904 0 2 tcp 1040 ------- 41 0.1 2.0 12 61
- 0.27264 0 1 tcp 1040 ------- 40 0.0 1.0 27 62
- 0.273472 0 1 tcp 1040 ------- 40 0.0 1.0 28 63
- 0.273568 0 2 tcp 1040 ------- 41 0.1 2.0 13 66
- 0.274304 0 1 tcp 1040 ------- 40 0.0 1.0 29 64
- 0.275136 0 1 tcp 1040 ------- 40 0.0 1.0 30 65
- 0.275232 0 2 tcp 1040 ------- 41 0.1 2.0 14 67
r 0.275248 0 2 tcp 1040 ------- 41 0.1 2.0 7 48
+ 0.275248 2 0 ack 40 ------- 41 2.0 0.1 7 68
- 0.275248 2 0 ack 40 ------- 41 2.0 0.1 7 68
r 0.276912 0 2 tcp 1040 ------- 41 0.1 2.0 8 49
+ 0.276912 2 0 ack 40 ------- 41 2.0 0.1 8 69
- 0.276912 2 0 ack 40 ------- 41 2.0 0.1 8 69
r 0.278576 0 2 tcp 1040 ------- 41 0.1 2.0 9 54
+ 0.278576 2 0 ack 40 ------- 41 2.0 0.1 9 70
- 0.278576 2 0 ack 40 ------- 41 2.0 0.1 9 70
r 0.28024 0 2 tcp 1040 ------- 41 0.1 2.0 10 55
+ 0.28024 2 0 ack 40 ------- 41 2.0 0.1 10 71
- 0.28024 2 0 ack 40 ------- 41 2.0 0.1 10 71
r 0.281904 0 2 tcp 1040 ------- 41 0.1 2.0 11 60
+ 0.281904 2 0 ack 40 ------- 41 2.0 0.1 11 72
- 0.281904 2 0 ack 40 ------- 41 2.0 0.1 11 72
r 0.283488 0 1 tcp 1040 ------- 40 0.0 1.0 15 44
+ 0.283488 1 0 ack 40 ------- 40 1.0 0.0 15 73
- 0.283488 1 0 ack 40 ------- 40 1.0 0.0 15 73
r 0.283568 0 2 tcp 1040 ------- 41 0.1 2.0 12 61
+ 0.283568 2 0 ack 40 ------- 41 2.0 0.1 12 74
- 0.283568 2 0 ack 40 ------- 41 2.0 0.1 12 74
r 0.28432 0 1 tcp 1040 ------- 40 0.0 1.0 16 45
+ 0.28432 1 0 ack 40 ------- 40 1.0 0.0 16 75
- 0.28432 1 0 ack 40 ------- 40 1.0 0.0 16 75
r 0.285152 0 1 tcp 1040 ------- 40 0.0 1.0 17 46
+ 0.285152 1 0 ack 40 ------- 40 1.0 0.0 17 76
- 0.285152 1 0 ack 40 ------- 40 1.0 0.0 17 76
r 0.285232 0 2 tcp 1040 ------- 41 0.1 2.0 13 66
+ 0.285232 2 0 ack 40 ------- 41 2.0 0.1 13 77
- 0.285232 2 0 ack 40 ------- 41 2.0 0.1 13 77
r 0.285312 2 0 ack 40 ------- 41 2.0 0.1 7 68
+ 0.285312 0 2 tcp 1040 ------- 41 0.1 2.0 15 78
- 0.285312 0 2 tcp 1040 ------- 41 0.1 2.0 15 78
+ 0.285312 0 2 tcp 1040 ------- 41 0.1 2.0 16 79
r 0.285984 0 1 tcp 1040 ------- 40 0.0 1.0 18 47
+ 0.285984 1 0 ack 40 ------- 40 1.0 0.0 18 80
- 0.285984 1 0 ack 40 ------- 40 1.0 0.0 18 80
r 0.286816 0 1 tcp 1040 ------- 40 0.0 1.0 19 50
+ 0.286816 1 0 ack 40 ------- 40 1.0 0.0 19 81
- 0.286816 1 0 ack 40 ------- 40 1.0 0.0 19 81
r 0.286896 0 2 tcp 1040 ------- 41 0.1 2.0 14 67
+ 0.286896 2 0 ack 40 ------- 41 2.0 0.1 14 82
- 0.286896 2 0 ack 40 ------- 41 2.0 0.1 14 82
r 0.286976 2 0 ack 40 ------- 41 2.0 0.1 8 69
+ 0.286976 0 2 tcp 1040 ------- 41 0.1 2.0 17 83
+ 0.286976 0 2 tcp 1040 ------- 41 0.1 2.0 18 84
- 0.286976 0 2 tcp 1040 ------- 41 0.1 2.0 16 79
r 0.287648 0 1 tcp 1040 ------- 40 0.0 1.0 20 51
+ 0.287648 1 0 ack 40 ------- 40 1.0 0.0 20 85
- 0.287648 1 0 ack 40 ------- 40 1.0 0.0 20 85
r 0.28848 0 1 tcp 1040 ------- 40 0.0 1.0 21 52
+ 0.28848 1 0 ack 40 ------- 40 1.0 0.0 21 86
- 0.28848 1 0 ack 40 ------- 40 1.0 0.0 21 86
r 0.28864 2 0 ack 40 ------- 41 2.0 0.1 9 70
+ 0.28864 0 2 tcp 1040 ------- 41 0.1 2.0 19 87
+ 0.28864 0 2 tcp 1040 ------- 41 0.1 2.0 20 88
- 0.28864 0 2 tcp 1040 ------- 41 0.1 2.0 17 83
r 0.289312 0 1 tcp 1040 ------- 40 0.0 1.0 22 53
+ 0.289312 1 0 ack 40 ------- 40 1.0 0.0 22 89
- 0.289312 1 0 ack 40 ------- 40 1.0 0.0 22 89
r 0.290144 0 1 tcp 1040 ------- 40 0.0 1.0 23 56
+ 0.290144 1 0 ack 40 ------- 40 1.0 0.0 23 90
- 0.290144 1 0 ack 40 ------- 40 1.0 0.0 23 90
r 0.290304 2 0 ack 40 ------- 41 2.0 0.1 10 71
+ 0.290304 0 2 tcp 1040 ------- 41 0.1 2.0 21 91
+ 0.290304 0 2 tcp 1040 ------- 41 0.1 2.0 22 92
- 0.290304 0 2 tcp 1040 ------- 41 0.1 2.0 18 84
r 0.290976 0 1 tcp 1040 ------- 40 0.0 1.0 24 57
+ 0.290976 1 0 ack 40 ------- 40 1.0 0.0 24 93
- 0.290976 1 0 ack 40 ------- 40 1.0 0.0 24 93
r 0.291808 0 1 tcp 1040 ------- 40 0.0 1.0 25 58
+ 0.291808 1 0 ack 40 ------- 40 1.0 0.0 25 94
- 0.291808 1 0 ack 40 ------- 40 1.0 0.0 25 94
r 0.291968 2 0 ack 40 ------- 41 2.0 0.1 11 72
+ 0.291968 0 2 tcp 1040 ------- 41 0.1 2.0 23 95
+ 0.291968 0 2 tcp 1040 ------- 41 0.1 2.0 24 96
- 0.291968 0 2 tcp 1040 ------- 41 0.1 2.0 19 87
r 0.29264 0 1 tcp 1040 ------- 40 0.0 1.0 26 59
+ 0.29264 1 0 ack 40 ------- 40 1.0 0.0 26 97
- 0.29264 1 0 ack 40 ------- 40 1.0 0.0 26 97
r 0.293472 0 1 tcp 1040 ------- 40 0.0 1.0 27 62
+ 0.293472 1 0 ack 40 ------- 40 1.0 0.0 27 98
- 0.293472 1 0 ack 40 ------- 40 1.0 0.0 27 98
r 0.293632 2 0 ack 40 ------- 41 2.0 0.1 12 74
+ 0.293632 0 2 tcp 1040 ------- 41 0.1 2.0 25 99
+ 0.293632 0 2 tcp 1040 ------- 41 0.1 2.0 26 100
- 0.293632 0 2 tcp 1040 ------- 41 0.1 2.0 20 88
r 0.294304 0 1 tcp 1040 ------- 40 0.0 1.0 28 63
+ 0.294304 1 0 ack 40 ------- 40 1.0 0.0 28 101
- 0.294304 1 0 ack 40 ------- 40 1.0 0.0 28 101
r 0.295136 0 1 tcp 1040 ------- 40 0.0 1.0 29 64
+ 0.295136 1 0 ack 40 ------- 40 1.0 0.0 29 102
- 0.295136 1 0 ack 40 ------- 40 1.0 0.0 29 102
r 0.295296 2 0 ack 40 ------- 41 2.0 0.1 13 77
+ 0.295296 0 2 tcp 1040 ------- 41 0.1 2.0 27 103
+ 0.295296 0 2 tcp 1040 ------- 41 0.1 2.0 28 104
- 0.295296 0 2 tcp 1040 ------- 41 0.1 2.0 21 91
r 0.295968 0 1 tcp 1040 ------- 40 0.0 1.0 30 65
+ 0.295968 1 0 ack 40 ------- 40 1.0 0.0 30 105
- 0.295968 1 0 ack 40 ------- 40 1.0 0.0 30 105
r 0.29696 2 0 ack 40 ------- 41 2.0 0.1 14 82
+ 0.29696 0 2 tcp 1040 ------- 41 0.1 2.0 29 106
+ 0.29696 0 2 tcp 1040 ------- 41 0.1 2.0 30 107
- 0.29696 0 2 tcp 1040 ------- 41 0.1 2.0 22 92
r 0.296976 0 2 tcp 1040 ------- 41 0.1 2.0 15 78
+ 0.296976 2 0 ack 40 ------- 41 2.0 0.1 15 108
- 0.296976 2 0 ack 40 ------- 41 2.0 0.1 15 108
- 0.298624 0 2 tcp 1040 ------- 41 0.1 2.0 23 95
r 0.29864 0 2 tcp 1040 ------- 41 0.1 2.0 16 79
+ 0.29864 2 0 ack 40 ------- 41 2.0 0.1 16 109
- 0.29864 2 0 ack 40 ------- 41 2.0 0.1 16 109
+ 0.3 0 3 tcp 40 ------- 42 0.2 3.0 0 110
- 0.3 0 3 tcp 40 ------- 42 0.2 3.0 0 110
- 0.300288 0 2 tcp 1040 ------- 41 0.1 2.0 24 96
r 0.300304 0 2 tcp 1040 ------- 41 0.1 2.0 17 83
+ 0.300304 2 0 ack 40 ------- 41 2.0 0.1 17 111
- 0.300304 2 0 ack 40 ------- 41 2.0 0.1 17 111
- 0.301952 0 2 tcp 1040 ------- 41 0.1 2.0 25 99
r 0.301968 0 2 tcp 1040 ------- 41 0.1 2.0 18 84
+ 0.301968 2 0 ack 40 ------- 41 2.0 0.1 18 112
- 0.301968 2 0 ack 40 ------- 41 2.0 0.1 18 112
r 0.30352 1 0 ack 40 ------- 40 1.0 0.0 15 73
+ 0.30352 0 1 tcp 1040 ------- 40 0.0 1.0 31 113
- 0.30352 0 1 tcp 1040 ------- 40 0.0 1.0 31 113
+ 0.30352 0 1 tcp 1040 ------- 40 0.0 1.0 32 114
- 0.303616 0 2 tcp 1040 ------- 41 0.1 2.0 26 100
r 0.303632 0 2 tcp 1040 ------- 41 0.1 2.0 19 87
+ 0.303632 2 0 ack 40 ------- 41 2.0 0.1 19 115
- 0.303632 2 0 ack 40 ------- 41 2.0 0.1 19 115
r 0.304352 1 0 ack 40 ------- 40 1.0 0.0 16 75
+ 0.304352 0 1 tcp 1040 ------- 40 0.0 1.0 33 116
+ 0.304352 0 1 tcp 1040 ------- 40 0.0 1.0 34 117
- 0.304352 0 1 tcp 1040 ------- 40 0.0 1.0 32 114
r 0.305184 1 0 ack 40 ------- 40 1.0 0.0 17 76
+ 0.305184 0 1 tcp 1040 ------- 40 0.0 1.0 35 118
+ 0.305184 0 1 tcp 1040 ------- 40 0.0 1.0 36 119
- 0.305184 0 1 tcp 1040 ------- 40 0.0 1.0 33 116
- 0.30528 0 2 tcp 1040 ------- 41 0.1 2.0 27 103
r 0.305296 0 2 tcp 1040 ------- 41 0.1 2.0 20 88
+ 0.305296 2 0 ack 40 ------- 41 2.0 0.1 20 120
- 0.305296 2 0 ack 40 ------- 41 2.0 0.1 20 120
r 0.306016 1 0 ack 40 ------- 40 1.0 0.0 18 80
+ 0.306016 0 1 tcp 1040 ------- 40 0.0 1.0 37 121
+ 0.306016 0 1 tcp 1040 ------- 40 0.0 1.0 38 122
- 0.306016 0 1 tcp 1040 ------- 40 0.0 1.0 34 117
r 0.306848 1 0 ack 40 ------- 40 1.0 0.0 19 81
+ 0.306848 0 1 tcp 1040 ------- 40 0.0 1.0 39 123
- 0.306848 0 1 tcp 1040 ------- 40 0.0 1.0 35 118
- 0.306944 0 2 tcp 1040 ------- 41 0.1 2.0 28 104
r 0.30696 0 2 tcp 1040 ------- 41 0.1 2.0 21 91
+ 0.30696 2 0 ack 40 ------- 41 2.0 0.1 21 124
- 0.30696 2 0 ack 40 ------- 41 2.0 0.1 21 124
r 0.30704 2 0 ack 40 ------- 41 2.0 0.1 15 108
+ 0.30704 0 2 tcp 1040 ------- 41 0.1 2.0 31 125
+ 0.30704 0 2 tcp 1040 ------- 41 0.1 2.0 32 126
r 0.30768 1 0 ack 40 ------- 40 1.0 0.0 20 85
+ 0.30768 0 1 tcp 1040 ------- 40 0.0 1.0 40 127
- 0.30768 0 1 tcp 1040 ------- 40 0.0 1.0 36 119
r 0.308512 1 0 ack 40 ------- 40 1.0 0.0 21 86
+ 0.308512 0 1 tcp 1040 ------- 40 0.0 1.0 41 128
- 0.308512 0 1 tcp 1040 ------- 40 0.0 1.0 37 121
- 0.308608 0 2 tcp 1040 ------- 41 0.1 2.0 29 106
r 0.308624 0 2 tcp 1040 ------- 41 0.1 2.0 22 92
+ 0.308624 2 0 ack 40 ------- 41 2.0 0.1 22 129
- 0.308624 2 0 ack 40 ------- 41 2.0 0.1 22 129
r 0.308704 2 0 ack 40 ------- 41 2.0 0.1 16 109
+ 0.308704 0 2 tcp 1040 ------- 41 0.1 2.0 33 130
+ 0.308704 0 2 tcp 1040 ------- 41 0.1 2.0 34 131
r 0.309344 1 0 ack 40 ------- 40 1.0 0.0 22 89
+ 0.309344 0 1 tcp 1040 ------- 40 0.0 1.0 42 132
- 0.309344 0 1 tcp 1040 ------- 40 0.0 1.0 38 122
r 0.310176 1 0 ack 40 ------- 40 1.0 0.0 23 90
+ 0.310176 0 1 tcp 1040 ------- 40 0.0 1.0 43 133
- 0.310176 0 1 tcp 1040 ------- 40 0.0 1.0 39 123
- 0.310272 0 2 tcp 1040 ------- 41 0.1 2.0 30 107
r 0.310288 0 2 tcp 1040 ------- 41 0.1 2.0 23 95
+ 0.310288 2 0 ack 40 ------- 41 2.0 0.1 23 134
- 0.310288 2 0 ack 40 ------- 41 2.0 0.1 23 134
r 0.31032 0 3 tcp 40 ------- 42 0.2 3.0 0 110
+ 0.31032 3 0 ack 40 ------- 42 3.0 0.2 0 135
- 0.31032 3 0 ack 40 ------- 42 3.0 0.2 0 135
r 0.310368 2 0 ack 40 ------- 41 2.0 0.1 17 111
+ 0.310368 0 2 tcp 1040 ------- 41 0.1 2.0 35 136
+ 0.310368 0 2 tcp 1040 ------- 41 0.1 2.0 36 137
r 0.311008 1 0 ack 40 ------- 40 1.0 0.0 24 93
+ 0.311008 0 1 tcp 1040 ------- 40 0.0 1.0 44 138
- 0.311008 0 1 tcp 1040 ------- 40 0.0 1.0 40 127
r 0.31184 1 0 ack 40 ------- 40 1.0 0.0 25 94
+ 0.31184 0 1 tcp 1040 ------- 40 0.0 1.0 45 139
- 0.31184 0 1 tcp 1040 ------- 40 0.0 1.0 41 128
- 0.311936 0 2 tcp 1040 ------- 41 0.1 2.0 31 125
r 0.311952 0 2 tcp 1040 ------- 41 0.1 2.0 24 96
+ 0.311952 2 0 ack 40 ------- 41 2.0 0.1 24 140
- 0.311952 2 0 ack 40 ------- 41 2.0 0.1 24 140
r 0.312032 2 0 ack 40 ------- 41 2.0 0.1 18 112
+ 0.312032 0 2 tcp 1040 ------- 41 0.1 2.0 37 141
+ 0.312032 0 2 tcp 1040 ------- 41 0.1 2.0 38 142
r 0.312672 1 0 ack 40 ------- 40 1.0 0.0 26 97
+ 0.312672 0 1 tcp 1040 ------- 40 0.0 1.0 46 143
- 0.312672 0 1 tcp 1040 ------- 40 0.0 1.0 42 132
r 0.313504 1 0 ack 40 ------- 40 1.0 0.0 27 98
+ 0.313504 0 1 tcp 1040 ------- 40 0.0 1.0 47 144
- 0.313504 0 1 tcp 1040 ------- 40 0.0 1.0 43 133
- 0.3136 0 2 tcp 1040 ------- 41 0.1 2.0 32 126
r 0.313616 0 2 tcp 1040 ------- 41 0.1 2.0 25 99
+ 0.313616 2 0 ack 40 ------- 41 2.0 0.1 25 145
- 0.313616 2 0 ack 40 ------- 41 2.0 0.1 25 145
r 0.313696 2 0 ack 40 ------- 41 2.0 0.1 19 115
+ 0.313696 0 2 tcp 1040 ------- 41 0.1 2.0 39 146
r 0.314336 1 0 ack 40 ------- 40 1.0 0.0 28 101
+ 0.314336 0 1 tcp 1040 ------- 40 0.0 1.0 48 147
- 0.314336 0 1 tcp 1040 ------- 40 0.0 1.0 44 138
r 0.315168 1 0 ack 40 ------- 40 1.0 0.0 29 102
+ 0.315168 0 1 tcp 1040 ------- 40 0.0 1.0 49 148
- 0.315168 0 1 tcp 1040 ------- 40 0.0 1.0 45 139
- 0.315264 0 2 tcp 1040 ------- 41 0.1 2.0 33 130
r 0.31528 0 2 tcp 1040 ------- 41 0.1 2.0 26 100
+ 0.31528 2 0 ack 40 ------- 41 2.0 0.1 26 149
- 0.31528 2 0 ack 40 ------- 41 2.0 0.1 26 149
r 0.31536 2 0 ack 40 ------- 41 2.0 0.1 20 120
+ 0.31536 0 2 tcp 1040 ------- 41 0.1 2.0 40 150
r 0.316 1 0 ack 40 ------- 40 1.0 0.0 30 105
+ 0.316 0 1 tcp 1040 ------- 40 0.0 1.0 50 151
- 0.316 0 1 tcp 1040 ------- 40 0.0 1.0 46 143
- 0.316832 0 1 tcp 1040 ------- 40 0.0 1.0 47 144
- 0.316928 0 2 tcp 1040 ------- 41 0.1 2.0 34 131
r 0.316944 0 2 tcp 1040 ------- 41 0.1 2.0 27 103
+ 0.316944 2 0 ack 40 ------- 41 2.0 0.1 27 152
- 0.316944 2 0 ack 40 ------- 41 2.0 0.1 27 152
r 0.317024 2 0 ack 40 ------- 41 2.0 0.1 21 124
+ 0.317024 0 2 tcp 1040 ------- 41 0.1 2.0 41 153
- 0.317664 0 1 tcp 1040 ------- 40 0.0 1.0 48 147
- 0.318496 0 1 tcp 1040 ------- 40 0.0 1.0 49 148
- 0.318592 0 2 tcp 1040 ------- 41 0.1 2.0 35 136
r 0.318608 0 2 tcp 1040 ------- 41 0.1 2.0 28 104
+ 0.318608 2 0 ack 40 ------- 41 2.0 0.1 28 154
- 0.318608 2 0 ack 40 ------- 41 2.0 0.1 28 154
r 0.318688 2 0 ack 40 ------- 41 2.0 0.1 22 129
+ 0.318688 0 2 tcp 1040 ------- 41 0.1 2.0 42 155
- 0.319328 0 1 tcp 1040 ------- 40 0.0 1.0 50 151
- 0.320256 0 2 tcp 1040 ------- 41 0.1 2.0 36 137
r 0.320272 0 2 tcp 1040 ------- 41 0.1 2.0 29 106
+ 0.320272 2 0 ack 40 ------- 41 2.0 0.1 29 156
- 0.320272 2 0 ack 40 ------- 41 2.0 0.1 29 156
r 0.320352 2 0 ack 40 ------- 41 2.0 0.1 23 134
+ 0.320352 0 2 tcp 1040 ------- 41 0.1 2.0 43 157
r 0.32064 3 0 ack 40 ------- 42 3.0 0.2 0 135
+ 0.32064 0 3 tcp 1040 ------- 42 0.2 3.0 1 158
- 0.32064 0 3 tcp 1040 ------- 42 0.2 3.0 1 158
+ 0.32064 0 3 tcp 1040 ------- 42 0.2 3.0 2 159
- 0.32192 0 2 tcp 1040 ------- 41 0.1 2.0 37 141
r 0.321936 0 2 tcp 1040 ------- 41 0.1 2.0 30 107
+ 0.321936 2 0 ack 40 ------- 41 2.0 0.1 30 160
- 0.321936 2 0 ack 40 ------- 41 2.0 0.1 30 160
r 0.322016 2 0 ack 40 ------- 41 2.0 0.1 24 140
+ 0.322016 0 2 tcp 1040 ------- 41 0.1 2.0 44 161
- 0.323584 0 2 tcp 1040 ------- 41 0.1 2.0 38 142
r 0.3236 0 2 tcp 1040 ------- 41 0.1 2.0 31 125
+ 0.3236 2 0 ack 40 ------- 41 2.0 0.1 31 162
- 0.3236 2 0 ack 40 ------- 41 2.0 0.1 31 162
r 0.32368 2 0 ack 40 ------- 41 2.0 0.1 25 145
+ 0.32368 0 2 tcp 1040 ------- 41 0.1 2.0 45 163
r 0.324352 0 1 tcp 1040 ------- 40 0.0 1.0 31 113
+ 0.324352 1 0 ack 40 ------- 40 1.0 0.0 31 164
- 0.324352 1 0 ack 40 ------- 40 1.0 0.0 31 164
r 0.325184 0 1 tcp 1040 ------- 40 0.0 1.0 32 114
+ 0.325184 1 0 ack 40 ------- 40 1.0 0.0 32 165
- 0.325184 1 0 ack 40 ------- 40 1.0 0.0 32 165
- 0.325248 0 2 tcp 1040 ------- 41 0.1 2.0 39 146
r 0.325264 0 2 tcp 1040 ------- 41 0.1 2.0 32 126
+ 0.325264 2 0 ack 40 ------- 41 2.0 0.1 32 166
- 0.325264 2 0 ack 40 ------- 41 2.0 0.1 32 166
r 0.325344 2 0 ack 40 ------- 41 2.0 0.1 26 149
+ 0.325344 0 2 tcp 1040 ------- 41 0.1 2.0 46 167
r 0.326016 0 1 tcp 1040 ------- 40 0.0 1.0 33 116
+ 0.326016 1 0 ack 40 ------- 40 1.0 0.0 33 168
- 0.326016 1 0 ack 40 ------- 40 1.0 0.0 33 168
r 0.326848 0 1 tcp 1040 ------- 40 0.0 1.0 34 117
+ 0.326848 1 0 ack 40 ------- 40 1.0 0.0 34 169
- 0.326848 1 0 ack 40 ------- 40 1.0 0.0 34 169
- 0.326912 0 2 tcp 1040 ------- 41 0.1 2.0 40 150
r 0.326928 0 2 tcp 1040 ------- 41 0.1 2.0 33 130
+ 0.326928 2 0 ack 40 ------- 41 2.0 0.1 33 170
- 0.326928 2 0 ack 40 ------- 41 2.0 0.1 33 170
r 0.327008 2 0 ack 40 ------- 41 2.0 0.1 27 152
+ 0.327008 0 2 tcp 1040 ------- 41 0.1 2.0 47 171
r 0.32768 0 1 tcp 1040 ------- 40 0.0 1.0 35 118
+ 0.32768 1 0 ack 40 ------- 40 1.0 0.0 35 172
- 0.32768 1 0 ack 40 ------- 40 1.0 0.0 35 172
r 0.328512 0 1 tcp 1040 ------- 40 0.0 1.0 36 119
+ 0.328512 1 0 ack 40 ------- 40 1.0 0.0 36 173
- 0.328512 1 0 ack 40 ------- 40 1.0 0.0 36 173
- 0.328576 0 2 tcp 1040 ------- 41 0.1 2.0 41 153
r 0.328592 0 2 tcp 1040 ------- 41 0.1 2.0 34 131
+ 0.328592 2 0 ack 40 ------- 41 2.0 0.1 34 174
- 0.328592 2 0 ack 40 ------- 41 2.0 0.1 34 174
r 0.328672 2 0 ack 40 ------- 41 2.0 0.1 28 154
+ 0.328672 0 2 tcp 1040 ------- 41 0.1 2.0 48 175
- 0.32896 0 3 tcp 1040 ------- 42 0.2 3.0 2 159
r 0.329344 0 1 tcp 1040 ------- 40 0.0 1.0 37 121
+ 0.329344 1 0 ack 40 ------- 40 1.0 0.0 37 176
- 0.329344 1 0 ack 40 ------- 40 1.0 0.0 37 176
r 0.330176 0 1 tcp 1040 ------- 40 0.0 1.0 38 122
+ 0.330176 1 0 ack 40 ------- 40 1.0 0.0 38 177
- 0.330176 1 0 ack 40 ------- 40 1.0 0.0 38 177
- 0.33024 0 2 tcp 1040 ------- 41 0.1 2.0 42 155
r 0.330256 0 2 tcp 1040 ------- 41 0.1 2.0 35 136
+ 0.330256 2 0 ack 40 ------- 41 2.0 0.1 35 178
- 0.330256 2 0 ack 40 ------- 41 2.0 0.1 35 178
r 0.330336 2 0 ack 40 ------- 41 2.0 0.1 29 156
+ 0.330336 0 2 tcp 1040 ------- 41 0.1 2.0 49 179
r 0.331008 0 1 tcp 1040 ------- 40 0.0 1.0 39 123
+ 0.331008 1 0 ack 40 ------- 40 1.0 0.0 39 180
- 0.331008 1 0 ack 40 ------- 40 1.0 0.0 39 180
r 0.33184 0 1 tcp 1040 ------- 40 0.0 1.0 40 127
+ 0.33184 1 0 ack 40 ------- 40 1.0 0.0 40 181
- 0.33184 1 0 ack 40 ------- 40 1.0 0.0 40 181
- 0.331904 0 2 tcp 1040 ------- 41 0.1 2.0 43 157
r 0.33192 0 2 tcp 1040 ------- 41 0.1 2.0 36 137
+ 0.33192 2 0 ack 40 ------- 41 2.0 0.1 36 182
- 0.33192 2 0 ack 40 ------- 41 2.0 0.1 36 182
r 0.332 2 0 ack 40 ------- 41 2.0 0.1 30 160
+ 0.332 0 2 tcp 1040 ------- 41 0.1 2.0 50 183
r 0.332672 0 1 tcp 1040 ------- 40 0.0 1.0 41 128
+ 0.332672 1 0 ack 40 ------- 40 1.0 0.0 41 184
- 0.332672 1 0 ack 40 ------- 40 1.0 0.0 41 184
r 0.333504 0 1 tcp 1040 ------- 40 0.0 1.0 42 132
+ 0.333504 1 0 ack 40 ------- 40 1.0 0.0 42 185
- 0.333504 1 0 ack 40 ------- 40 1.0 0.0 42 185
- 0.333568 0 2 tcp 1040 ------- 41 0.1 2.0 44 161
r 0.333584 0 2 tcp 1040 ------- 41 0.1 2.0 37 141
+ 0.333584 2 0 ack 40 ------- 41 2.0 0.1 37 186
- 0.333584 2 0 ack 40 ------- 41 2.0 0.1 37 186
r 0.333664 2 0 ack 40 ------- 41 2.0 0.1 31 162
+ 0.333664 0 2 tcp 1040 ------- 41 0.1 2.0 51 187
r 0.334336 0 1 tcp 1040 ------- 40 0.0 1.0 43 133
+ 0.334336 1 0 ack 40 ------- 40 1.0 0.0 43 188
- 0.334336 1 0 ack 40 ------- 40 1.0 0.0 43 188
r 0.335168 0 1 tcp 1040 ------- 40 0.0 1.0 44 138
+ 0.335168 1 0 ack 40 ------- 40 1.0 0.0 44 189
- 0.335168 1 0 ack 40 ------- 40 1.0 0.0 44 189
- 0.335232 0 2 tcp 1040 ------- 41 0.1 2.0 45 163
r 0.335248 0 2 tcp 1040 ------- 41 0.1 2.0 38 142
+ 0.335248 2 0 ack 40 ------- 41 2.0 0.1 38 190
- 0.335248 2 0 ack 40 ------- 41 2.0 0.1 38 190
r 0.335328 2 0 ack 40 ------- 41 2.0 0.1 32 166
+ 0.335328 0 2 tcp 1040 ------- 41 0.1 2.0 52 191
r 0.336 0 1 tcp 1040 ------- 40 0.0 1.0 45 139
+ 0.336 1 0 ack 40 ------- 40 1.0 0.0 45 192
- 0.336 1 0 ack 40 ------- 40 1.0 0.0 45 192
r 0.336832 0 1 tcp 1040 ------- 40 0.0 1.0 46 143
+ 0.336832 1 0 ack 40 ------- 40 1.0 0.0 46 193
- 0.336832 1 0 ack 40 ------- 40 1.0 0.0 46 193
- 0.336896 0 2 tcp 1040 ------- 41 0.1 2.0 46 167
r 0.336912 0 2 tcp 1040 ------- 41 0.1 2.0 39 146
+ 0.336912 2 0 ack 40 ------- 41 2.0 0.1 39 194
- 0.336912 2 0 ack 40 ------- 41 2.0 0.1 39 194
r 0.336992 2 0 ack 40 ------- 41 2.0 0.1 33 170
+ 0.336992 0 2 tcp 1040 ------- 41 0.1 2.0 53 195
r 0.337664 0 1 tcp 1040 ------- 40 0.0 1.0 47 144
+ 0.337664 1 0 ack 40 ------- 40 1.0 0.0 47 196
- 0.337664 1 0 ack 40 ------- 40 1.0 0.0 47 196
r 0.338496 0 1 tcp 1040 ------- 40 0.0 1.0 48 147
+ 0.338496 1 0 ack 40 ------- 40 1.0 0.0 48 197
- 0.338496 1 0 ack 40 ------- 40 1.0 0.0 48 197
- 0.33856 0 2 tcp 1040 ------- 41 0.1 2.0 47 171
r 0.338576 0 2 tcp 1040 ------- 41 0.1 2.0 40 150
+ 0.338576 2 0 ack 40 ------- 41 2.0 0.1 40 198
- 0.338576 2 0 ack 40 ------- 41 2.0 0.1 40 198
r 0.338656 2 0 ack 40 ------- 41 2.0 0.1 34 174
+ 0.338656 0 2 tcp 1040 ------- 41 0.1 2.0 54 199
r 0.33896 0 3 tcp 1040 ------- 42 0.2 3.0 1 158
+ 0.33896 3 0 ack 40 ------- 42 3.0 0.2 1 200
- 0.33896 3 0 ack 40 ------- 42 3.0 0.2 1 200
r 0.339328 0 1 tcp 1040 ------- 40 0.0 1.0 49 148
+ 0.339328 1 0 ack 40 ------- 40 1.0 0.0 49 201
- 0.339328 1 0 ack 40 ------- 40 1.0 0.0 49 201
r 0.34016 0 1 tcp 1040 ------- 40 0.0 1.0 50 151
+ 0.34016 1 0 ack 40 ------- 40 1.0 0.0 50 202
- 0.34016 1 0 ack 40 ------- 40 1.0 0.0 50 202
- 0.340224 0 2 tcp 1040 ------- 41 0.1 2.0 48 175
r 0.34024 0 2 tcp 1040 ------- 41 0.1 2.0 41 153
+ 0.34024 2 0 ack 40 ------- 41 2.0 0.1 41 203
- 0.34024 2 0 ack 40 ------- 41 2.0 0.1 41 203
r 0.34032 2 0 ack 40 ------- 41 2.0 0.1 35 178
+ 0.34032 0 2 tcp 1040 ------- 41 0.1 2.0 55 204
- 0.341888 0 2 tcp 1040 ------- 41 0.1 2.0 49 179
r 0.341904 0 2 tcp 1040 ------- 41 0.1 2.0 42 155
+ 0.341904 2 0 ack 40 ------- 41 2.0 0.1 42 205
- 0.341904 2 0 ack 40 ------- 41 2.0 0.1 42 205
r 0.341984 2 0 ack 40 ------- 41 2.0 0.1 36 182
+ 0.341984 0 2 tcp 1040 ------- 41 0.1 2.0 56 206
- 0.343552 0 2 tcp 1040 ------- 41 0.1 2.0 50 183
r 0.343568 0 2 tcp 1040 ------- 41 0.1 2.0 43 157
+ 0.343568 2 0 ack 40 ------- 41 2.0 0.1 43 207
- 0.343568 2 0 ack 40 ------- 41 2.0 0.1 43 207
r 0.343648 2 0 ack 40 ------- 41 2.0 0.1 37 186
+ 0.343648 0 2 tcp 1040 ------- 41 0.1 2.0 57 208
r 0.344384 1 0 ack 40 ------- 40 1.0 0.0 31 164
+ 0.344384 0 1 tcp 1040 ------- 40 0.0 1.0 51 209
- 0.344384 0 1 tcp 1040 ------- 40 0.0 1.0 51 209
r 0.345216 1 0 ack 40 ------- 40 1.0 0.0 32 165
+ 0.345216 0 1 tcp 1040 ------- 40 0.0 1.0 52 210
- 0.345216 0 2 tcp 1040 ------- 41 0.1 2.0 51 187
- 0.345216 0 1 tcp 1040 ------- 40 0.0 1.0 52 210
r 0.345232 0 2 tcp 1040 ------- 41 0.1 2.0 44 161
+ 0.345232 2 0 ack 40 ------- 41 2.0 0.1 44 211
- 0.345232 2 0 ack 40 ------- 41 2.0 0.1 44 211
r 0.345312 2 0 ack 40 ------- 41 2.0 0.1 38 190
+ 0.345312 0 2 tcp 1040 ------- 41 0.1 2.0 58 212
r 0.346048 1 0 ack 40 ------- 40 1.0 0.0 33 168
+ 0.346048 0 1 tcp 1040 ------- 40 0.0 1.0 53 213
- 0.346048 0 1 tcp 1040 ------- 40 0.0 1.0 53 213
r 0.34688 1 0 ack 40 ------- 40 1.0 0.0 34 169
+ 0.34688 0 1 tcp 1040 ------- 40 0.0 1.0 54 214
- 0.34688 0 2 tcp 1040 ------- 41 0.1 2.0 52 191
- 0.34688 0 1 tcp 1040 ------- 40 0.0 1.0 54 214
r 0.346896 0 2 tcp 1040 ------- 41 0.1 2.0 45 163
+ 0.346896 2 0 ack 40 ------- 41 2.0 0.1 45 215
- 0.346896 2 0 ack 40 ------- 41 2.0 0.1 45 215
r 0.346976 2 0 ack 40 ------- 41 2.0 0.1 39 194
+ 0.346976 0 2 tcp 1040 ------- 41 0.1 2.0 59 216
r 0.34728 0 3 tcp 1040 ------- 42 0.2 3.0 2 159
+ 0.34728 3 0 ack 40 ------- 42 3.0 0.2 2 217
- 0.34728 3 0 ack 40 ------- 42 3.0 0.2 2 217
r 0.347712 1 0 ack 40 ------- 40 1.0 0.0 35 172
+ 0.347712 0 1 tcp 1040 ------- 40 0.0 1.0 55 218
- 0.347712 0 1 tcp 1040 ------- 40 0.0 1.0 55 218
r 0.348544 1 0 ack 40 ------- 40 1.0 0.0 36 173
+ 0.348544 0 1 tcp 1040 ------- 40 0.0 1.0 56 219
- 0.348544 0 2 tcp 1040 ------- 41 0.1 2.0 53 195
- 0.348544 0 1 tcp 1040 ------- 40 0.0 1.0 56 219
r 0.34856 0 2 tcp 1040 ------- 41 0.1 2.0 46 167
+ 0.34856 2 0 ack 40 ------- 41 2.0 0.1 46 220
- 0.34856 2 0 ack 40 ------- 41 2.0 0.1 46 220
r 0.34864 2 0 ack 40 ------- 41 2.0 0.1 40 198
+ 0.34864 0 2 tcp 1040 ------- 41 0.1 2.0 60 221
r 0.34928 3 0 ack 40 ------- 42 3.0 0.2 1 200
+ 0.34928 0 3 tcp 1040 ------- 42 0.2 3.0 3 222
- 0.34928 0 3 tcp 1040 ------- 42 0.2 3.0 3 222
+ 0.34928 0 3 tcp 1040 ------- 42 0.2 3.0 4 223
r 0.349376 1 0 ack 40 ------- 40 1.0 0.0 37 176
+ 0.349376 0 1 tcp 1040 ------- 40 0.0 1.0 57 224
- 0.349376 0 1 tcp 1040 ------- 40 0.0 1.0 57 224