s 0.000960000 _0_ MAC  --- 0 CM7 8 [0 ffffffff 0 0] [energy 9.999981 ei 0.000 es 0.000 et 0.000 er 0.000] 
N -t 0.000960 -n 1 -e 9.999972
r 0.001408050 _1_ MAC  --- 0 CM7 8 [0 ffffffff 0 0] [energy 9.999972 ei 0.000 es 0.000 et 0.000 er 0.000] 
s 0.140480000 _0_ MAC  --- 0 CM7 8 [0 ffffffff 0 0] [energy 9.999554 ei 0.000 es 0.000 et 0.000 er 0.000] 
N -t 0.140480 -n 1 -e 9.999559
s 0.281280000 _0_ MAC  --- 0 CM7 8 [0 ffffffff 0 0] [energy 9.999124 ei 0.001 es 0.000 et 0.000 er 0.000] 
N -t 0.281280 -n 1 -e 9.999142
s 0.420352000 _0_ MAC  --- 0 BCN 12 [0 ffffffff 0 0] [energy 9.999102 ei 0.001 es 0.000 et 0.000 er 0.000] 
N -t 0.420352 -n 1 -e 9.998722
s 0.543232000 _0_ MAC  --- 0 BCN 12 [0 ffffffff 0 0] [energy 9.998687 ei 0.001 es 0.000 et 0.000 er 0.000] 
N -t 0.543232 -n 1 -e 9.998349
s 0.666112000 _0_ MAC  --- 0 BCN 12 [0 ffffffff 0 0] [energy 9.998318 ei 0.002 es 0.000 et 0.000 er 0.000] 
N -t 0.666112 -n 1 -e 9.997975
s 0.788992000 _0_ MAC  --- 0 BCN 12 [0 ffffffff 0 0] [energy 9.997949 ei 0.002 es 0.000 et 0.000 er 0.000] 
N -t 0.788992 -n 1 -e 9.997601
s 0.911872000 _0_ MAC  --- 0 BCN 12 [0 ffffffff 0 0] [energy 9.997581 ei 0.002 es 0.000 et 0.000 er 0.000] 
N -t 0.911872 -n 1 -e 9.997227
s 1.034752000 _0_ MAC  --- 0 BCN 12 [0 ffffffff 0 0] [energy 9.997212 ei 0.003 es 0.000 et 0.000 er 0.000] 
N -t 1.034752 -n 1 -e 9.996854
s 1.157632000 _0_ MAC  --- 0 BCN 12 [0 ffffffff 0 0] [energy 9.996843 ei 0.003 es 0.000 et 0.000 er 0.000] 
N -t 1.157632 -n 1 -e 9.996480
s 1.280512000 _0_ MAC  --- 0 BCN 12 [0 ffffffff 0 0] [energy 9.996474 ei 0.003 es 0.000 et 0.000 er 0.000] 
N -t 1.280512 -n 1 -e 9.996106
s 1.403392000 _0_ MAC  --- 0 BCN 12 [0 ffffffff 0 0] [energy 9.996105 ei 0.004 es 0.000 et 0.000 er 0.000] 
N -t 1.403392 -n 1 -e 9.995732
s 1.526272000 _0_ MAC  --- 0 BCN 12 [0 ffffffff 0 0] [energy 9.995736 ei 0.004 es 0.000 et 0.000 er 0.000] 
N -t 1.526272 -n 1 -e 9.995359
D 1.526848050 _1_ MAC  ERR 0 BCN 12 [0 ffffffff 0 0] [energy 9.995359 ei 0.004 es 0.000 et 0.000 er 0.000] 
s 1.649152000 _0_ MAC  --- 0 BCN 12 [0 ffffffff 0 0] [energy 9.995367 ei 0.004 es 0.000 et 0.000 er 0.000] 
N -t 1.649152 -n 1 -e 9.994985
s 1.772032000 _0_ MAC  --- 0 BCN 12 [0 ffffffff 0 0] [energy 9.994998 ei 0.005 es 0.000 et 0.000 er 0.000] 
N -t 1.772032 -n 1 -e 9.994611
s 1.894912000 _0_ MAC  --- 0 BCN 12 [0 ffffffff 0 0] [energy 9.994630 ei 0.005 es 0.000 et 0.000 er 0.000] 
N -t 1.894912 -n 1 -e 9.994237
s 2.017792000 _0_ MAC  --- 0 BCN 12 [0 ffffffff 0 0] [energy 9.994261 ei 0.005 es 0.000 et 0.000 er 0.000] 
N -t 2.017792 -n 1 -e 9.993863
s 2.140672000 _0_ MAC  --- 0 BCN 12 [0 ffffffff 0 0] [energy 9.993892 ei 0.006 es 0.000 et 0.000 er 0.000] 
N -t 2.140672 -n 1 -e 9.993490
s 2.263552000 _0_ MAC  --- 0 BCN 12 [0 ffffffff 0 0] [energy 9.993523 ei 0.006 es 0.000 et 0.000 er 0.000] 
N -t 2.263552 -n 1 -e 9.993116
s 2.386432000 _0_ MAC  --- 0 BCN 12 [0 ffffffff 0 0] [energy 9.993154 ei 0.006 es 0.000 et 0.001 er 0.000] 
N -t 2.386432 -n 1 -e 9.992742
s 2.509312000 _0_ MAC  --- 0 BCN 12 [0 ffffffff 0 0] [energy 9.992785 ei 0.007 es 0.000 et 0.001 er 0.000] 
N -t 2.509312 -n 1 -e 9.992368
s 2.632192000 _0_ MAC  --- 0 BCN 12 [0 ffffffff 0 0] [energy 9.992416 ei 0.007 es 0.000 et 0.001 er 0.000] 
N -t 2.632192 -n 1 -e 9.991995
D 2.632768050 _1_ MAC  ERR 0 BCN 12 [0 ffffffff 0 0] [energy 9.991995 ei 0.007 es 0.000 et 0.000 er 0.001] 
s 2.755072000 _0_ MAC  --- 0 BCN 12 [0 ffffffff 0 0] [energy 9.992047 ei 0.007 es 0.000 et 0.001 er 0.000] 
N -t 2.755072 -n 1 -e 9.991621
s 2.877952000 _0_ MAC  --- 0 BCN 12 [0 ffffffff 0 0] [energy 9.991679 ei 0.008 es 0.000 et 0.001 er 0.000] 
N -t 2.877952 -n 1 -e 9.991247
s 3.000832000 _0_ MAC  --- 0 BCN 12 [0 ffffffff 0 0] [energy 9.991310 ei 0.008 es 0.000 et 0.001 er 0.000] 
N -t 3.000832 -n 1 -e 9.990873
s 3.123712000 _0_ MAC  --- 0 BCN 12 [0 ffffffff 0 0] [energy 9.990941 ei 0.008 es 0.000 et 0.001 er 0.000] 
N -t 3.123712 -n 1 -e 9.990500
s 3.246592000 _0_ MAC  --- 0 BCN 12 [0 ffffffff 0 0] [energy 9.990572 ei 0.009 es 0.000 et 0.001 er 0.000] 
N -t 3.246592 -n 1 -e 9.990126
s 3.369472000 _0_ MAC  --- 0 BCN 12 [0 ffffffff 0 0] [energy 9.990203 ei 0.009 es 0.000 et 0.001 er 0.000] 
N -t 3.369472 -n 1 -e 9.989752
s 3.492352000 _0_ MAC  --- 0 BCN 12 [0 ffffffff 0 0] [energy 9.989834 ei 0.009 es 0.000 et 0.001 er 0.000] 
N -t 3.492352 -n 1 -e 9.989378
s 3.615232000 _0_ MAC  --- 0 BCN 12 [0 ffffffff 0 0] [energy 9.989465 ei 0.010 es 0.000 et 0.001 er 0.000] 
N -t 3.615232 -n 1 -e 9.989004
s 3.738112000 _0_ MAC  --- 0 BCN 12 [0 ffffffff 0 0] [energy 9.989096 ei 0.010 es 0.000 et 0.001 er 0.000] 
N -t 3.738112 -n 1 -e 9.988631
s 3.860992000 _0_ MAC  --- 0 BCN 12 [0 ffffffff 0 0] [energy 9.988728 ei 0.010 es 0.000 et 0.001 er 0.000] 
N -t 3.860992 -n 1 -e 9.988257
s 3.983872000 _0_ MAC  --- 0 BCN 12 [0 ffffffff 0 0] [energy 9.988359 ei 0.011 es 0.000 et 0.001 er 0.000] 
N -t 3.983872 -n 1 -e 9.987883
s 4.106752000 _0_ MAC  --- 0 BCN 12 [0 ffffffff 0 0] [energy 9.987990 ei 0.011 es 0.000 et 0.001 er 0.000] 
N -t 4.106752 -n 1 -e 9.987509
s 4.229632000 _0_ MAC  --- 0 BCN 12 [0 ffffffff 0 0] [energy 9.987621 ei 0.011 es 0.000 et 0.001 er 0.000] 
N -t 4.229632 -n 1 -e 9.987136
s 4.352512000 _0_ MAC  --- 0 BCN 12 [0 ffffffff 0 0] [energy 9.987252 ei 0.012 es 0.000 et 0.001 er 0.000] 
N -t 4.352512 -n 1 -e 9.986762
s 4.475392000 _0_ MAC  --- 0 BCN 12 [0 ffffffff 0 0] [energy 9.986883 ei 0.012 es 0.000 et 0.001 er 0.000] 
N -t 4.475392 -n 1 -e 9.986388
s 4.598272000 _0_ MAC  --- 0 BCN 12 [0 ffffffff 0 0] [energy 9.986514 ei 0.012 es 0.000 et 0.001 er 0.000] 
N -t 4.598272 -n 1 -e 9.986014
s 4.721152000 _0_ MAC  --- 0 BCN 12 [0 ffffffff 0 0] [energy 9.986145 ei 0.013 es 0.000 et 0.001 er 0.000] 
N -t 4.721152 -n 1 -e 9.985640
s 4.844032000 _0_ MAC  --- 0 BCN 12 [0 ffffffff 0 0] [energy 9.985777 ei 0.013 es 0.000 et 0.001 er 0.000] 
N -t 4.844032 -n 1 -e 9.985267
s 4.966912000 _0_ MAC  --- 0 BCN 12 [0 ffffffff 0 0] [energy 9.985408 ei 0.013 es 0.000 et 0.001 er 0.000] 
N -t 4.966912 -n 1 -e 9.984893
s 5.000640000 _1_ MAC  --- 0 CM7 8 [0 ffffffff 1 0] [energy 9.984784 ei 0.014 es 0.000 et 0.000 er 0.001] 
N -t 5.000640 -n 0 -e 9.984921
r 5.001088050 _0_ MAC  --- 0 CM7 8 [0 ffffffff 1 0] [energy 9.984921 ei 0.014 es 0.000 et 0.001 er 0.000] 
s 5.089792000 _0_ MAC  --- 0 BCN 12 [0 ffffffff 0 0] [energy 9.984921 ei 0.014 es 0.000 et 0.001 er 0.000] 
N -t 5.089792 -n 1 -e 9.984482
s 5.212672000 _0_ MAC  --- 0 BCN 12 [0 ffffffff 0 0] [energy 9.984646 ei 0.014 es 0.000 et 0.001 er 0.000] 
N -t 5.212672 -n 1 -e 9.984108
s 5.262720000 _1_ MAC  --- 0 CM7 8 [0 ffffffff 1 0] [energy 9.983953 ei 0.015 es 0.000 et 0.000 er 0.001] 
N -t 5.262720 -n 0 -e 9.984114
s 5.335552000 _0_ MAC  --- 0 BCN 12 [0 ffffffff 0 0] [energy 9.984114 ei 0.015 es 0.000 et 0.001 er 0.000] 
N -t 5.335552 -n 1 -e 9.983697
s 5.458432000 _0_ MAC  --- 0 BCN 12 [0 ffffffff 0 0] [energy 9.983884 ei 0.015 es 0.000 et 0.001 er 0.000] 
N -t 5.458432 -n 1 -e 9.983323
s 5.526400000 _1_ MAC  --- 0 CM7 8 [0 ffffffff 1 0] [energy 9.983118 ei 0.015 es 0.000 et 0.000 er 0.001] 
N -t 5.526400 -n 0 -e 9.983302
s 5.581312000 _0_ MAC  --- 0 BCN 12 [0 ffffffff 0 0] [energy 9.983302 ei 0.015 es 0.000 et 0.001 er 0.000] 
N -t 5.581312 -n 1 -e 9.982912
s 5.704192000 _0_ MAC  --- 0 BCN 12 [0 ffffffff 0 0] [energy 9.983122 ei 0.015 es 0.000 et 0.001 er 0.000] 
N -t 5.704192 -n 1 -e 9.982538
s 5.790400000 _1_ MAC  --- 0 CM1 17 [0 0 1 0] [energy 9.982282 ei 0.016 es 0.000 et 0.000 er 0.002] 
N -t 5.790400 -n 0 -e 9.982473
r 5.791136050 _0_ MAC  --- 0 CM1 17 [0 0 1 0] [energy 9.982473 ei 0.016 es 0.000 et 0.001 er 0.000] 
s 5.791552000 _0_ MAC  --- 0 ACK 5 [0 1 0 0] [energy 9.982473 ei 0.016 es 0.000 et 0.001 er 0.000] 
N -t 5.791552 -n 1 -e 9.982225
r 5.791904050 _1_ MAC  --- 0 ACK 5 [0 1 0 0] [energy 9.982225 ei 0.016 es 0.000 et 0.000 er 0.002] 
s 5.827072000 _0_ MAC  --- 0 BCN 20 [0 ffffffff 0 0] [energy 9.982455 ei 0.016 es 0.000 et 0.001 er 0.000] 
N -t 5.827072 -n 1 -e 9.982080
s 5.949952000 _0_ MAC  --- 0 BCN 20 [0 ffffffff 0 0] [energy 9.982317 ei 0.016 es 0.000 et 0.001 er 0.000] 
N -t 5.949952 -n 1 -e 9.981693
s 6.072832000 _0_ MAC  --- 0 BCN 20 [0 ffffffff 0 0] [energy 9.981936 ei 0.017 es 0.000 et 0.001 er 0.000] 
N -t 6.072832 -n 1 -e 9.981305
s 6.195712000 _0_ MAC  --- 0 BCN 20 [0 ffffffff 0 0] [energy 9.981556 ei 0.017 es 0.000 et 0.001 er 0.000] 
N -t 6.195712 -n 1 -e 9.980918
s 6.283424050 _1_ MAC  --- 0 CM4 16 [0 0 1 0] [energy 9.980918 ei 0.017 es 0.000 et 0.000 er 0.002] 
N -t 6.283424 -n 0 -e 9.980893
r 6.284128100 _0_ MAC  --- 0 CM4 16 [0 0 1 0] [energy 9.980893 ei 0.017 es 0.000 et 0.001 er 0.000] 
s 6.284352000 _0_ MAC  --- 0 ACK 5 [0 1 0 0] [energy 9.980893 ei 0.017 es 0.000 et 0.001 er 0.000] 
N -t 6.284352 -n 1 -e 9.980621
r 6.284704050 _1_ MAC  --- 0 ACK 5 [0 1 0 0] [energy 9.980621 ei 0.017 es 0.000 et 0.000 er 0.002] 
s 6.284992000 _0_ MAC  --- 0 CM2 25 [0 1 0 0] [energy 9.980876 ei 0.017 es 0.000 et 0.001 er 0.000] 
N -t 6.284992 -n 1 -e 9.980564
r 6.285984050 _1_ MAC  --- 0 CM2 25 [0 1 0 0] [energy 9.980564 ei 0.017 es 0.000 et 0.000 er 0.002] 
s 6.286176050 _1_ MAC  --- 0 ACK 5 [0 0 1 0] [energy 9.980564 ei 0.017 es 0.000 et 0.000 er 0.002] 
N -t 6.286176 -n 0 -e 9.980807
r 6.286528100 _0_ MAC  --- 0 ACK 5 [0 0 1 0] [energy 9.980807 ei 0.017 es 0.000 et 0.002 er 0.000] 
s 6.318592000 _0_ MAC  --- 0 BCN 12 [0 ffffffff 0 0] [energy 9.980807 ei 0.017 es 0.000 et 0.002 er 0.000] 
N -t 6.318592 -n 1 -e 9.980425
r 6.319168050 _1_ MAC  --- 0 BCN 12 [0 ffffffff 0 0] [energy 9.980425 ei 0.018 es 0.000 et 0.000 er 0.002] 
s 6.441472000 _0_ MAC  --- 0 BCN 12 [0 ffffffff 0 0] [energy 9.980690 ei 0.018 es 0.000 et 0.002 er 0.000] 
N -t 6.441472 -n 1 -e 9.980051
D 6.442048050 _1_ MAC  ERR 0 BCN 12 [0 ffffffff 0 0] [energy 9.980051 ei 0.018 es 0.000 et 0.000 er 0.002] 
s 6.564352000 _0_ MAC  --- 0 BCN 12 [0 ffffffff 0 0] [energy 9.980321 ei 0.018 es 0.000 et 0.002 er 0.000] 
N -t 6.564352 -n 1 -e 9.979677
r 6.564928050 _1_ MAC  --- 0 BCN 12 [0 ffffffff 0 0] [energy 9.979677 ei 0.018 es 0.000 et 0.000 er 0.002] 
s 6.687232000 _0_ MAC  --- 0 BCN 12 [0 ffffffff 0 0] [energy 9.979952 ei 0.018 es 0.000 et 0.002 er 0.000] 
N -t 6.687232 -n 1 -e 9.979303
r 6.687808050 _1_ MAC  --- 0 BCN 12 [0 ffffffff 0 0] [energy 9.979303 ei 0.019 es 0.000 et 0.000 er 0.002] 
s 6.810112000 _0_ MAC  --- 0 BCN 12 [0 ffffffff 0 0] [energy 9.979583 ei 0.019 es 0.000 et 0.002 er 0.000] 
N -t 6.810112 -n 1 -e 9.978930
D 6.810688050 _1_ MAC  ERR 0 BCN 12 [0 ffffffff 0 0] [energy 9.978930 ei 0.019 es 0.000 et 0.000 er 0.002] 
s 6.932992000 _0_ MAC  --- 0 BCN 12 [0 ffffffff 0 0] [energy 9.979214 ei 0.019 es 0.000 et 0.002 er 0.000] 
N -t 6.932992 -n 1 -e 9.978556
r 6.933568050 _1_ MAC  --- 0 BCN 12 [0 ffffffff 0 0] [energy 9.978556 ei 0.019 es 0.000 et 0.000 er 0.002] 
s 7.055872000 _0_ MAC  --- 0 BCN 12 [0 ffffffff 0 0] [energy 9.978845 ei 0.019 es 0.000 et 0.002 er 0.000] 
N -t 7.055872 -n 1 -e 9.978182
r 7.056448050 _1_ MAC  --- 0 BCN 12 [0 ffffffff 0 0] [energy 9.978182 ei 0.020 es 0.000 et 0.000 er 0.002] 
s 7.178752000 _0_ MAC  --- 0 BCN 12 [0 ffffffff 0 0] [energy 9.978477 ei 0.020 es 0.000 et 0.002 er 0.000] 
N -t 7.178752 -n 1 -e 9.977808
r 7.179328050 _1_ MAC  --- 0 BCN 12 [0 ffffffff 0 0] [energy 9.977808 ei 0.020 es 0.000 et 0.000 er 0.002] 
s 7.301632000 _0_ MAC  --- 0 BCN 12 [0 ffffffff 0 0] [energy 9.978108 ei 0.020 es 0.000 et 0.002 er 0.000] 
N -t 7.301632 -n 1 -e 9.977435
r 7.302208050 _1_ MAC  --- 0 BCN 12 [0 ffffffff 0 0] [energy 9.977435 ei 0.020 es 0.000 et 0.000 er 0.002] 
s 7.424512000 _0_ MAC  --- 0 BCN 12 [0 ffffffff 0 0] [energy 9.977739 ei 0.020 es 0.000 et 0.002 er 0.000] 
N -t 7.424512 -n 1 -e 9.977061
r 7.425088050 _1_ MAC  --- 0 BCN 12 [0 ffffffff 0 0] [energy 9.977061 ei 0.021 es 0.000 et 0.000 er 0.002] 
s 7.547392000 _0_ MAC  --- 0 BCN 12 [0 ffffffff 0 0] [energy 9.977370 ei 0.021 es 0.000 et 0.002 er 0.000] 
N -t 7.547392 -n 1 -e 9.976687
D 7.547968050 _1_ MAC  ERR 0 BCN 12 [0 ffffffff 0 0] [energy 9.976687 ei 0.021 es 0.000 et 0.000 er 0.002] 
s 7.670272000 _0_ MAC  --- 0 BCN 12 [0 ffffffff 0 0] [energy 9.977001 ei 0.021 es 0.000 et 0.002 er 0.000] 
N -t 7.670272 -n 1 -e 9.976313
r 7.670848050 _1_ MAC  --- 0 BCN 12 [0 ffffffff 0 0] [energy 9.976313 ei 0.021 es 0.000 et 0.000 er 0.002] 
s 7.793152000 _0_ MAC  --- 0 BCN 12 [0 ffffffff 0 0] [energy 9.976632 ei 0.021 es 0.000 et 0.002 er 0.000] 
N -t 7.793152 -n 1 -e 9.975940
r 7.793728050 _1_ MAC  --- 0 BCN 12 [0 ffffffff 0 0] [energy 9.975940 ei 0.022 es 0.000 et 0.000 er 0.002] 
s 7.916032000 _0_ MAC  --- 0 BCN 12 [0 ffffffff 0 0] [energy 9.976263 ei 0.022 es 0.000 et 0.002 er 0.000] 
N -t 7.916032 -n 1 -e 9.975566
r 7.916608050 _1_ MAC  --- 0 BCN 12 [0 ffffffff 0 0] [energy 9.975566 ei 0.022 es 0.000 et 0.000 er 0.002] 
s 8.038912000 _0_ MAC  --- 0 BCN 12 [0 ffffffff 0 0] [energy 9.975894 ei 0.022 es 0.000 et 0.002 er 0.000] 
N -t 8.038912 -n 1 -e 9.975192
r 8.039488050 _1_ MAC  --- 0 BCN 12 [0 ffffffff 0 0] [energy 9.975192 ei 0.022 es 0.000 et 0.000 er 0.002] 
s 8.161792000 _0_ MAC  --- 0 BCN 12 [0 ffffffff 0 0] [energy 9.975526 ei 0.022 es 0.000 et 0.002 er 0.000] 
N -t 8.161792 -n 1 -e 9.974818
r 8.162368050 _1_ MAC  --- 0 BCN 12 [0 ffffffff 0 0] [energy 9.974818 ei 0.023 es 0.000 et 0.000 er 0.002] 
s 8.284672000 _0_ MAC  --- 0 BCN 12 [0 ffffffff 0 0] [energy 9.975157 ei 0.023 es 0.000 et 0.002 er 0.000] 
N -t 8.284672 -n 1 -e 9.974444
r 8.285248050 _1_ MAC  --- 0 BCN 12 [0 ffffffff 0 0] [energy 9.974444 ei 0.023 es 0.000 et 0.000 er 0.002] 
s 8.407552000 _0_ MAC  --- 0 BCN 12 [0 ffffffff 0 0] [energy 9.974788 ei 0.023 es 0.000 et 0.002 er 0.000] 
N -t 8.407552 -n 1 -e 9.974071
r 8.408128050 _1_ MAC  --- 0 BCN 12 [0 ffffffff 0 0] [energy 9.974071 ei 0.023 es 0.000 et 0.000 er 0.002] 
s 8.530432000 _0_ MAC  --- 0 BCN 12 [0 ffffffff 0 0] [energy 9.974419 ei 0.023 es 0.000 et 0.002 er 0.000] 
N -t 8.530432 -n 1 -e 9.973697
r 8.531008050 _1_ MAC  --- 0 BCN 12 [0 ffffffff 0 0] [energy 9.973697 ei 0.024 es 0.000 et 0.000 er 0.002] 
s 8.653312000 _0_ MAC  --- 0 BCN 12 [0 ffffffff 0 0] [energy 9.974050 ei 0.024 es 0.000 et 0.002 er 0.000] 
N -t 8.653312 -n 1 -e 9.973323
r 8.653888050 _1_ MAC  --- 0 BCN 12 [0 ffffffff 0 0] [energy 9.973323 ei 0.024 es 0.000 et 0.000 er 0.003] 
s 8.776192000 _0_ MAC  --- 0 BCN 12 [0 ffffffff 0 0] [energy 9.973681 ei 0.024 es 0.000 et 0.002 er 0.000] 
N -t 8.776192 -n 1 -e 9.972949
r 8.776768050 _1_ MAC  --- 0 BCN 12 [0 ffffffff 0 0] [energy 9.972949 ei 0.024 es 0.000 et 0.000 er 0.003] 
s 8.899072000 _0_ MAC  --- 0 BCN 12 [0 ffffffff 0 0] [energy 9.973312 ei 0.024 es 0.000 et 0.002 er 0.000] 
N -t 8.899072 -n 1 -e 9.972576
r 8.899648050 _1_ MAC  --- 0 BCN 12 [0 ffffffff 0 0] [energy 9.972576 ei 0.025 es 0.000 et 0.000 er 0.003] 
s 9.021952000 _0_ MAC  --- 0 BCN 12 [0 ffffffff 0 0] [energy 9.972943 ei 0.025 es 0.000 et 0.002 er 0.000] 
N -t 9.021952 -n 1 -e 9.972202
r 9.022528050 _1_ MAC  --- 0 BCN 12 [0 ffffffff 0 0] [energy 9.972202 ei 0.025 es 0.000 et 0.000 er 0.003] 
s 9.144832000 _0_ MAC  --- 0 BCN 12 [0 ffffffff 0 0] [energy 9.972575 ei 0.025 es 0.000 et 0.002 er 0.000] 
N -t 9.144832 -n 1 -e 9.971828
r 9.145408050 _1_ MAC  --- 0 BCN 12 [0 ffffffff 0 0] [energy 9.971828 ei 0.025 es 0.000 et 0.000 er 0.003] 
s 9.267712000 _0_ MAC  --- 0 BCN 12 [0 ffffffff 0 0] [energy 9.972206 ei 0.025 es 0.000 et 0.002 er 0.000] 
N -t 9.267712 -n 1 -e 9.971454
r 9.268288050 _1_ MAC  --- 0 BCN 12 [0 ffffffff 0 0] [energy 9.971454 ei 0.026 es 0.000 et 0.000 er 0.003] 
s 9.390592000 _0_ MAC  --- 0 BCN 12 [0 ffffffff 0 0] [energy 9.971837 ei 0.026 es 0.000 et 0.002 er 0.000] 
N -t 9.390592 -n 1 -e 9.971081
r 9.391168050 _1_ MAC  --- 0 BCN 12 [0 ffffffff 0 0] [energy 9.971081 ei 0.026 es 0.000 et 0.000 er 0.003] 
s 9.513472000 _0_ MAC  --- 0 BCN 12 [0 ffffffff 0 0] [energy 9.971468 ei 0.026 es 0.000 et 0.002 er 0.000] 
N -t 9.513472 -n 1 -e 9.970707
r 9.514048050 _1_ MAC  --- 0 BCN 12 [0 ffffffff 0 0] [energy 9.970707 ei 0.026 es 0.000 et 0.000 er 0.003] 
s 9.636352000 _0_ MAC  --- 0 BCN 12 [0 ffffffff 0 0] [energy 9.971099 ei 0.026 es 0.000 et 0.002 er 0.000] 
N -t 9.636352 -n 1 -e 9.970333
r 9.636928050 _1_ MAC  --- 0 BCN 12 [0 ffffffff 0 0] [energy 9.970333 ei 0.027 es 0.000 et 0.000 er 0.003] 
s 9.759232000 _0_ MAC  --- 0 BCN 12 [0 ffffffff 0 0] [energy 9.970730 ei 0.027 es 0.000 et 0.002 er 0.000] 
N -t 9.759232 -n 1 -e 9.969959
r 9.759808050 _1_ MAC  --- 0 BCN 12 [0 ffffffff 0 0] [energy 9.969959 ei 0.027 es 0.000 et 0.000 er 0.003] 
s 9.882112000 _0_ MAC  --- 0 BCN 12 [0 ffffffff 0 0] [energy 9.970361 ei 0.027 es 0.000 et 0.002 er 0.000] 
N -t 9.882112 -n 1 -e 9.969585
r 9.882688050 _1_ MAC  --- 0 BCN 12 [0 ffffffff 0 0] [energy 9.969585 ei 0.027 es 0.000 et 0.000 er 0.003] 
s 10.004992000 _0_ MAC  --- 0 BCN 12 [0 ffffffff 0 0] [energy 9.969992 ei 0.027 es 0.000 et 0.002 er 0.000] 
N -t 10.004992 -n 1 -e 9.969212
D 10.005568050 _1_ MAC  ERR 0 BCN 12 [0 ffffffff 0 0] [energy 9.969212 ei 0.028 es 0.000 et 0.000 er 0.003] 
s 10.127872000 _0_ MAC  --- 0 BCN 12 [0 ffffffff 0 0] [energy 9.969623 ei 0.028 es 0.000 et 0.002 er 0.000] 
N -t 10.127872 -n 1 -e 9.968838
r 10.128448050 _1_ MAC  --- 0 BCN 12 [0 ffffffff 0 0] [energy 9.968838 ei 0.028 es 0.000 et 0.000 er 0.003] 
s 10.250752000 _0_ MAC  --- 0 BCN 12 [0 ffffffff 0 0] [energy 9.969255 ei 0.028 es 0.000 et 0.002 er 0.000] 
N -t 10.250752 -n 1 -e 9.968464
r 10.251328050 _1_ MAC  --- 0 BCN 12 [0 ffffffff 0 0] [energy 9.968464 ei 0.028 es 0.000 et 0.000 er 0.003] 
s 10.373632000 _0_ MAC  --- 0 BCN 12 [0 ffffffff 0 0] [energy 9.968886 ei 0.028 es 0.000 et 0.002 er 0.000] 
N -t 10.373632 -n 1 -e 9.968090
r 10.374208050 _1_ MAC  --- 0 BCN 12 [0 ffffffff 0 0] [energy 9.968090 ei 0.029 es 0.000 et 0.000 er 0.003] 
s 10.496512000 _0_ MAC  --- 0 BCN 12 [0 ffffffff 0 0] [energy 9.968517 ei 0.029 es 0.000 et 0.002 er 0.000] 
N -t 10.496512 -n 1 -e 9.967717
r 10.497088050 _1_ MAC  --- 0 BCN 12 [0 ffffffff 0 0] [energy 9.967717 ei 0.029 es 0.000 et 0.000 er 0.003] 
s 10.619392000 _0_ MAC  --- 0 BCN 12 [0 ffffffff 0 0] [energy 9.968148 ei 0.029 es 0.000 et 0.002 er 0.000] 
N -t 10.619392 -n 1 -e 9.967343
r 10.619968050 _1_ MAC  --- 0 BCN 12 [0 ffffffff 0 0] [energy 9.967343 ei 0.029 es 0.000 et 0.000 er 0.003] 
s 10.742272000 _0_ MAC  --- 0 BCN 12 [0 ffffffff 0 0] [energy 9.967779 ei 0.029 es 0.000 et 0.003 er 0.000] 
N -t 10.742272 -n 1 -e 9.966969
r 10.742848050 _1_ MAC  --- 0 BCN 12 [0 ffffffff 0 0] [energy 9.966969 ei 0.030 es 0.000 et 0.000 er 0.003] 
s 10.865152000 _0_ MAC  --- 0 BCN 12 [0 ffffffff 0 0] [energy 9.967410 ei 0.030 es 0.000 et 0.003 er 0.000] 
N -t 10.865152 -n 1 -e 9.966595
r 10.865728050 _1_ MAC  --- 0 BCN 12 [0 ffffffff 0 0] [energy 9.966595 ei 0.030 es 0.000 et 0.000 er 0.003] 
s 10.988032000 _0_ MAC  --- 0 BCN 12 [0 ffffffff 0 0] [energy 9.967041 ei 0.030 es 0.000 et 0.003 er 0.000] 
N -t 10.988032 -n 1 -e 9.966221
r 10.988608050 _1_ MAC  --- 0 BCN 12 [0 ffffffff 0 0] [energy 9.966221 ei 0.030 es 0.000 et 0.000 er 0.003] 
s 11.110912000 _0_ MAC  --- 0 BCN 12 [0 ffffffff 0 0] [energy 9.966672 ei 0.030 es 0.000 et 0.003 er 0.000] 
N -t 11.110912 -n 1 -e 9.965848
r 11.111488050 _1_ MAC  --- 0 BCN 12 [0 ffffffff 0 0] [energy 9.965848 ei 0.031 es 0.000 et 0.000 er 0.003] 
s 11.233792000 _0_ MAC  --- 0 BCN 12 [0 ffffffff 0 0] [energy 9.966304 ei 0.031 es 0.000 et 0.003 er 0.000] 
N -t 11.233792 -n 1 -e 9.965474
r 11.234368050 _1_ MAC  --- 0 BCN 12 [0 ffffffff 0 0] [energy 9.965474 ei 0.031 es 0.000 et 0.000 er 0.003] 
s 11.356672000 _0_ MAC  --- 0 BCN 12 [0 ffffffff 0 0] [energy 9.965935 ei 0.031 es 0.000 et 0.003 er 0.000] 
N -t 11.356672 -n 1 -e 9.965100
r 11.357248050 _1_ MAC  --- 0 BCN 12 [0 ffffffff 0 0] [energy 9.965100 ei 0.032 es 0.000 et 0.000 er 0.003] 
s 11.479552000 _0_ MAC  --- 0 BCN 12 [0 ffffffff 0 0] [energy 9.965566 ei 0.032 es 0.000 et 0.003 er 0.000] 
N -t 11.479552 -n 1 -e 9.964726
r 11.480128050 _1_ MAC  --- 0 BCN 12 [0 ffffffff 0 0] [energy 9.964726 ei 0.032 es 0.000 et 0.000 er 0.003] 
s 11.602432000 _0_ MAC  --- 0 BCN 12 [0 ffffffff 0 0] [energy 9.965197 ei 0.032 es 0.000 et 0.003 er 0.000] 
N -t 11.602432 -n 1 -e 9.964353
D 11.603008050 _1_ MAC  ERR 0 BCN 12 [0 ffffffff 0 0] [energy 9.964353 ei 0.032 es 0.000 et 0.000 er 0.003] 
s 11.725312000 _0_ MAC  --- 0 BCN 12 [0 ffffffff 0 0] [energy 9.964828 ei 0.032 es 0.000 et 0.003 er 0.000] 
N -t 11.725312 -n 1 -e 9.963979
r 11.725888050 _1_ MAC  --- 0 BCN 12 [0 ffffffff 0 0] [energy 9.963979 ei 0.033 es 0.000 et 0.000 er 0.003] 
s 11.848192000 _0_ MAC  --- 0 BCN 12 [0 ffffffff 0 0] [energy 9.964459 ei 0.033 es 0.000 et 0.003 er 0.000] 
N -t 11.848192 -n 1 -e 9.963605
r 11.848768050 _1_ MAC  --- 0 BCN 12 [0 ffffffff 0 0] [energy 9.963605 ei 0.033 es 0.000 et 0.000 er 0.003] 
s 11.971072000 _0_ MAC  --- 0 BCN 12 [0 ffffffff 0 0] [energy 9.964090 ei 0.033 es 0.000 et 0.003 er 0.000] 
N -t 11.971072 -n 1 -e 9.963231
r 11.971648050 _1_ MAC  --- 0 BCN 12 [0 ffffffff 0 0] [energy 9.963231 ei 0.033 es 0.000 et 0.000 er 0.003] 
s 12.093952000 _0_ MAC  --- 0 BCN 12 [0 ffffffff 0 0] [energy 9.963721 ei 0.033 es 0.000 et 0.003 er 0.000] 
N -t 12.093952 -n 1 -e 9.962858
r 12.094528050 _1_ MAC  --- 0 BCN 12 [0 ffffffff 0 0] [energy 9.962858 ei 0.034 es 0.000 et 0.000 er 0.003] 
s 12.216832000 _0_ MAC  --- 0 BCN 12 [0 ffffffff 0 0] [energy 9.963353 ei 0.034 es 0.000 et 0.003 er 0.000] 
N -t 12.216832 -n 1 -e 9.962484
r 12.217408050 _1_ MAC  --- 0 BCN 12 [0 ffffffff 0 0] [energy 9.962484 ei 0.034 es 0.000 et 0.000 er 0.003] 
s 12.339712000 _0_ MAC  --- 0 BCN 12 [0 ffffffff 0 0] [energy 9.962984 ei 0.034 es 0.000 et 0.003 er 0.000] 
N -t 12.339712 -n 1 -e 9.962110
r 12.340288050 _1_ MAC  --- 0 BCN 12 [0 ffffffff 0 0] [energy 9.962110 ei 0.034 es 0.000 et 0.000 er 0.003] 
s 12.462592000 _0_ MAC  --- 0 BCN 12 [0 ffffffff 0 0] [energy 9.962615 ei 0.034 es 0.000 et 0.003 er 0.000] 
N -t 12.462592 -n 1 -e 9.961736
r 12.463168050 _1_ MAC  --- 0 BCN 12 [0 ffffffff 0 0] [energy 9.961736 ei 0.035 es 0.000 et 0.000 er 0.004] 
s 12.585472000 _0_ MAC  --- 0 BCN 12 [0 ffffffff 0 0] [energy 9.962246 ei 0.035 es 0.000 et 0.003 er 0.000] 
N -t 12.585472 -n 1 -e 9.961362
r 12.586048050 _1_ MAC  --- 0 BCN 12 [0 ffffffff 0 0] [energy 9.961362 ei 0.035 es 0.000 et 0.000 er 0.004] 
s 12.708352000 _0_ MAC  --- 0 BCN 12 [0 ffffffff 0 0] [energy 9.961877 ei 0.035 es 0.000 et 0.003 er 0.000] 
N -t 12.708352 -n 1 -e 9.960989
r 12.708928050 _1_ MAC  --- 0 BCN 12 [0 ffffffff 0 0] [energy 9.960989 ei 0.035 es 0.000 et 0.000 er 0.004] 
s 12.831232000 _0_ MAC  --- 0 BCN 12 [0 ffffffff 0 0] [energy 9.961508 ei 0.035 es 0.000 et 0.003 er 0.000] 
N -t 12.831232 -n 1 -e 9.960615
r 12.831808050 _1_ MAC  --- 0 BCN 12 [0 ffffffff 0 0] [energy 9.960615 ei 0.036 es 0.000 et 0.000 er 0.004] 
s 12.954112000 _0_ MAC  --- 0 BCN 12 [0 ffffffff 0 0] [energy 9.961139 ei 0.036 es 0.000 et 0.003 er 0.000] 
N -t 12.954112 -n 1 -e 9.960241
r 12.954688050 _1_ MAC  --- 0 BCN 12 [0 ffffffff 0 0] [energy 9.960241 ei 0.036 es 0.000 et 0.000 er 0.004] 
s 13.076992000 _0_ MAC  --- 0 BCN 12 [0 ffffffff 0 0] [energy 9.960770 ei 0.036 es 0.000 et 0.003 er 0.000] 
N -t 13.076992 -n 1 -e 9.959867
r 13.077568050 _1_ MAC  --- 0 BCN 12 [0 ffffffff 0 0] [energy 9.959867 ei 0.036 es 0.000 et 0.000 er 0.004] 
s 13.199872000 _0_ MAC  --- 0 BCN 12 [0 ffffffff 0 0] [energy 9.960402 ei 0.036 es 0.000 et 0.003 er 0.000] 
N -t 13.199872 -n 1 -e 9.959494
r 13.200448050 _1_ MAC  --- 0 BCN 12 [0 ffffffff 0 0] [energy 9.959494 ei 0.037 es 0.000 et 0.000 er 0.004] 
s 13.322752000 _0_ MAC  --- 0 BCN 12 [0 ffffffff 0 0] [energy 9.960033 ei 0.037 es 0.000 et 0.003 er 0.000] 
N -t 13.322752 -n 1 -e 9.959120
r 13.323328050 _1_ MAC  --- 0 BCN 12 [0 ffffffff 0 0] [energy 9.959120 ei 0.037 es 0.000 et 0.000 er 0.004] 
s 13.445632000 _0_ MAC  --- 0 BCN 12 [0 ffffffff 0 0] [energy 9.959664 ei 0.037 es 0.000 et 0.003 er 0.000] 
N -t 13.445632 -n 1 -e 9.958746
r 13.446208050 _1_ MAC  --- 0 BCN 12 [0 ffffffff 0 0] [energy 9.958746 ei 0.037 es 0.000 et 0.000 er 0.004] 
s 13.568512000 _0_ MAC  --- 0 BCN 12 [0 ffffffff 0 0] [energy 9.959295 ei 0.037 es 0.000 et 0.003 er 0.000] 
N -t 13.568512 -n 1 -e 9.958372
r 13.569088050 _1_ MAC  --- 0 BCN 12 [0 ffffffff 0 0] [energy 9.958372 ei 0.038 es 0.000 et 0.000 er 0.004] 
s 13.691392000 _0_ MAC  --- 0 BCN 12 [0 ffffffff 0 0] [energy 9.958926 ei 0.038 es 0.000 et 0.003 er 0.000] 
N -t 13.691392 -n 1 -e 9.957998
r 13.691968050 _1_ MAC  --- 0 BCN 12 [0 ffffffff 0 0] [energy 9.957998 ei 0.038 es 0.000 et 0.000 er 0.004] 
s 13.814272000 _0_ MAC  --- 0 BCN 12 [0 ffffffff 0 0] [energy 9.958557 ei 0.038 es 0.000 et 0.003 er 0.000] 
N -t 13.814272 -n 1 -e 9.957625
r 13.814848050 _1_ MAC  --- 0 BCN 12 [0 ffffffff 0 0] [energy 9.957625 ei 0.038 es 0.000 et 0.000 er 0.004] 
s 13.937152000 _0_ MAC  --- 0 BCN 12 [0 ffffffff 0 0] [energy 9.958188 ei 0.038 es 0.000 et 0.003 er 0.000] 
N -t 13.937152 -n 1 -e 9.957251
r 13.937728050 _1_ MAC  --- 0 BCN 12 [0 ffffffff 0 0] [energy 9.957251 ei 0.039 es 0.000 et 0.000 er 0.004] 
s 14.060032000 _0_ MAC  --- 0 BCN 12 [0 ffffffff 0 0] [energy 9.957819 ei 0.039 es 0.000 et 0.003 er 0.000] 
N -t 14.060032 -n 1 -e 9.956877
r 14.060608050 _1_ MAC  --- 0 BCN 12 [0 ffffffff 0 0] [energy 9.956877 ei 0.039 es 0.000 et 0.000 er 0.004] 
s 14.182912000 _0_ MAC  --- 0 BCN 12 [0 ffffffff 0 0] [energy 9.957451 ei 0.039 es 0.000 et 0.003 er 0.000] 
N -t 14.182912 -n 1 -e 9.956503
r 14.183488050 _1_ MAC  --- 0 BCN 12 [0 ffffffff 0 0] [energy 9.956503 ei 0.039 es 0.000 et 0.000 er 0.004] 
s 14.305792000 _0_ MAC  --- 0 BCN 12 [0 ffffffff 0 0] [energy 9.957082 ei 0.039 es 0.000 et 0.003 er 0.000] 
N -t 14.305792 -n 1 -e 9.956130
r 14.306368050 _1_ MAC  --- 0 BCN 12 [0 ffffffff 0 0] [energy 9.956130 ei 0.040 es 0.000 et 0.000 er 0.004] 
s 14.428672000 _0_ MAC  --- 0 BCN 12 [0 ffffffff 0 0] [energy 9.956713 ei 0.040 es 0.000 et 0.003 er 0.000] 
N -t 14.428672 -n 1 -e 9.955756
r 14.429248050 _1_ MAC  --- 0 BCN 12 [0 ffffffff 0 0] [energy 9.955756 ei 0.040 es 0.000 et 0.000 er 0.004] 
s 14.551552000 _0_ MAC  --- 0 BCN 12 [0 ffffffff 0 0] [energy 9.956344 ei 0.040 es 0.000 et 0.003 er 0.000] 
N -t 14.551552 -n 1 -e 9.955382
r 14.552128050 _1_ MAC  --- 0 BCN 12 [0 ffffffff 0 0] [energy 9.955382 ei 0.040 es 0.000 et 0.000 er 0.004] 
s 14.674432000 _0_ MAC  --- 0 BCN 12 [0 ffffffff 0 0] [energy 9.955975 ei 0.040 es 0.000 et 0.003 er 0.000] 
N -t 14.674432 -n 1 -e 9.955008
r 14.675008050 _1_ MAC  --- 0 BCN 12 [0 ffffffff 0 0] [energy 9.955008 ei 0.041 es 0.000 et 0.000 er 0.004] 
s 14.797312000 _0_ MAC  --- 0 BCN 12 [0 ffffffff 0 0] [energy 9.955606 ei 0.041 es 0.000 et 0.003 er 0.000] 
N -t 14.797312 -n 1 -e 9.954635
r 14.797888050 _1_ MAC  --- 0 BCN 12 [0 ffffffff 0 0] [energy 9.954635 ei 0.041 es 0.000 et 0.000 er 0.004] 
s 14.920192000 _0_ MAC  --- 0 BCN 12 [0 ffffffff 0 0] [energy 9.955237 ei 0.041 es 0.000 et 0.003 er 0.000] 
N -t 14.920192 -n 1 -e 9.954261
r 14.920768050 _1_ MAC  --- 0 BCN 12 [0 ffffffff 0 0] [energy 9.954261 ei 0.041 es 0.000 et 0.000 er 0.004] 
s 15.043072000 _0_ MAC  --- 0 BCN 12 [0 ffffffff 0 0] [energy 9.954868 ei 0.041 es 0.000 et 0.003 er 0.000] 
N -t 15.043072 -n 1 -e 9.953887
r 15.043648050 _1_ MAC  --- 0 BCN 12 [0 ffffffff 0 0] [energy 9.953887 ei 0.042 es 0.000 et 0.000 er 0.004] 
s 15.165952000 _0_ MAC  --- 0 BCN 12 [0 ffffffff 0 0] [energy 9.954500 ei 0.042 es 0.000 et 0.004 er 0.000] 
N -t 15.165952 -n 1 -e 9.953513
r 15.166528050 _1_ MAC  --- 0 BCN 12 [0 ffffffff 0 0] [energy 9.953513 ei 0.042 es 0.000 et 0.000 er 0.004] 
s 15.288832000 _0_ MAC  --- 0 BCN 12 [0 ffffffff 0 0] [energy 9.954131 ei 0.042 es 0.000 et 0.004 er 0.000] 
N -t 15.288832 -n 1 -e 9.953139
r 15.289408050 _1_ MAC  --- 0 BCN 12 [0 ffffffff 0 0] [energy 9.953139 ei 0.042 es 0.000 et 0.000 er 0.004] 
s 15.411712000 _0_ MAC  --- 0 BCN 12 [0 ffffffff 0 0] [energy 9.953762 ei 0.042 es 0.000 et 0.004 er 0.000] 
N -t 15.411712 -n 1 -e 9.952766
r 15.412288050 _1_ MAC  --- 0 BCN 12 [0 ffffffff 0 0] [energy 9.952766 ei 0.043 es 0.000 et 0.000 er 0.004] 
s 15.534592000 _0_ MAC  --- 0 BCN 12 [0 ffffffff 0 0] [energy 9.953393 ei 0.043 es 0.000 et 0.004 er 0.000] 
N -t 15.534592 -n 1 -e 9.952392
r 15.535168050 _1_ MAC  --- 0 BCN 12 [0 ffffffff 0 0] [energy 9.952392 ei 0.043 es 0.000 et 0.000 er 0.004] 
s 15.657472000 _0_ MAC  --- 0 BCN 12 [0 ffffffff 0 0] [energy 9.953024 ei 0.043 es 0.000 et 0.004 er 0.000] 
N -t 15.657472 -n 1 -e 9.952018
r 15.658048050 _1_ MAC  --- 0 BCN 12 [0 ffffffff 0 0] [energy 9.952018 ei 0.043 es 0.000 et 0.000 er 0.004] 
s 15.780352000 _0_ MAC  --- 0 BCN 12 [0 ffffffff 0 0] [energy 9.952655 ei 0.043 es 0.000 et 0.004 er 0.000] 
N -t 15.780352 -n 1 -e 9.951644
r 15.780928050 _1_ MAC  --- 0 BCN 12 [0 ffffffff 0 0] [energy 9.951644 ei 0.044 es 0.000 et 0.000 er 0.004] 
s 15.903232000 _0_ MAC  --- 0 BCN 12 [0 ffffffff 0 0] [energy 9.952286 ei 0.044 es 0.000 et 0.004 er 0.000] 
N -t 15.903232 -n 1 -e 9.951271
r 15.903808050 _1_ MAC  --- 0 BCN 12 [0 ffffffff 0 0] [energy 9.951271 ei 0.044 es 0.000 et 0.000 er 0.004] 
s 16.026112000 _0_ MAC  --- 0 BCN 12 [0 ffffffff 0 0] [energy 9.951917 ei 0.044 es 0.000 et 0.004 er 0.000] 
N -t 16.026112 -n 1 -e 9.950897
r 16.026688050 _1_ MAC  --- 0 BCN 12 [0 ffffffff 0 0] [energy 9.950897 ei 0.044 es 0.000 et 0.000 er 0.004] 
s 16.148992000 _0_ MAC  --- 0 BCN 12 [0 ffffffff 0 0] [energy 9.951549 ei 0.044 es 0.000 et 0.004 er 0.000] 
N -t 16.148992 -n 1 -e 9.950523
r 16.149568050 _1_ MAC  --- 0 BCN 12 [0 ffffffff 0 0] [energy 9.950523 ei 0.045 es 0.000 et 0.000 er 0.005] 
s 16.271872000 _0_ MAC  --- 0 BCN 12 [0 ffffffff 0 0] [energy 9.951180 ei 0.045 es 0.000 et 0.004 er 0.000] 
N -t 16.271872 -n 1 -e 9.950149
r 16.272448050 _1_ MAC  --- 0 BCN 12 [0 ffffffff 0 0] [energy 9.950149 ei 0.045 es 0.000 et 0.000 er 0.005] 
s 16.394752000 _0_ MAC  --- 0 BCN 12 [0 ffffffff 0 0] [energy 9.950811 ei 0.045 es 0.000 et 0.004 er 0.000] 
N -t 16.394752 -n 1 -e 9.949775
D 16.395328050 _1_ MAC  ERR 0 BCN 12 [0 ffffffff 0 0] [energy 9.949775 ei 0.046 es 0.000 et 0.000 er 0.005] 