# nam4wpan #
n -t * -s 0  -x 25 -y 25 -Z 0 -z 2  -v circle -c green
n -t * -s 1  -x 10 -y 25 -Z 0 -z 2  -v circle -c green
V -t * -v 1.0a5 -a 0
W -t * -x 50 -y 50
A -t * -n 1 -p 0 -o 0x7fffffff -c 30 -a 1
A -t * -h 1 -m 1073741823 -s 0
v -t 0.000000000 -e set_rate_ext 3ms 1
n -t 0.000000000 -s 0 -S DLABEL -l "PAN Coor" -L ""
+ -t 0.000960000 -s 0 -d -1 -p CM7 -e 8 -c 2 -a 0 -i 0 -k MAC 
- -t 0.000960000 -s 0 -d -1 -p CM7 -e 8 -c 2 -a 0 -i 0 -k MAC
h -t 0.000960000 -s 0 -d -1 -p CM7 -e 8 -c 2 -a 0 -i 0 -k MAC -R 15.00 -D 0.00
r -t 0.001408050 -s 1 -d -1 -p CM7 -e 8 -c 2 -a 0 -i 0 -k MAC
+ -t 0.140480000 -s 0 -d -1 -p CM7 -e 8 -c 2 -a 0 -i 0 -k MAC 
- -t 0.140480000 -s 0 -d -1 -p CM7 -e 8 -c 2 -a 0 -i 0 -k MAC
h -t 0.140480000 -s 0 -d -1 -p CM7 -e 8 -c 2 -a 0 -i 0 -k MAC -R 15.00 -D 0.00
+ -t 0.281280000 -s 0 -d -1 -p CM7 -e 8 -c 2 -a 0 -i 0 -k MAC 
- -t 0.281280000 -s 0 -d -1 -p CM7 -e 8 -c 2 -a 0 -i 0 -k MAC
h -t 0.281280000 -s 0 -d -1 -p CM7 -e 8 -c 2 -a 0 -i 0 -k MAC -R 15.00 -D 0.00
+ -t 0.420352000 -s 0 -d -1 -p BCN -e 12 -c 2 -a 0 -i 0 -k MAC 
- -t 0.420352000 -s 0 -d -1 -p BCN -e 12 -c 2 -a 0 -i 0 -k MAC
h -t 0.420352000 -s 0 -d -1 -p BCN -e 12 -c 2 -a 0 -i 0 -k MAC -R 15.00 -D 0.00
+ -t 0.543232000 -s 0 -d -1 -p BCN -e 12 -c 2 -a 0 -i 0 -k MAC 
- -t 0.543232000 -s 0 -d -1 -p BCN -e 12 -c 2 -a 0 -i 0 -k MAC
h -t 0.543232000 -s 0 -d -1 -p BCN -e 12 -c 2 -a 0 -i 0 -k MAC -R 15.00 -D 0.00
+ -t 0.666112000 -s 0 -d -1 -p BCN -e 12 -c 2 -a 0 -i 0 -k MAC 
- -t 0.666112000 -s 0 -d -1 -p BCN -e 12 -c 2 -a 0 -i 0 -k MAC
h -t 0.666112000 -s 0 -d -1 -p BCN -e 12 -c 2 -a 0 -i 0 -k MAC -R 15.00 -D 0.00
+ -t 0.788992000 -s 0 -d -1 -p BCN -e 12 -c 2 -a 0 -i 0 -k MAC 
- -t 0.788992000 -s 0 -d -1 -p BCN -e 12 -c 2 -a 0 -i 0 -k MAC
h -t 0.788992000 -s 0 -d -1 -p BCN -e 12 -c 2 -a 0 -i 0 -k MAC -R 15.00 -D 0.00
+ -t 0.911872000 -s 0 -d -1 -p BCN -e 12 -c 2 -a 0 -i 0 -k MAC 
- -t 0.911872000 -s 0 -d -1 -p BCN -e 12 -c 2 -a 0 -i 0 -k MAC
h -t 0.911872000 -s 0 -d -1 -p BCN -e 12 -c 2 -a 0 -i 0 -k MAC -R 15.00 -D 0.00
+ -t 1.034752000 -s 0 -d -1 -p BCN -e 12 -c 2 -a 0 -i 0 -k MAC 
- -t 1.034752000 -s 0 -d -1 -p BCN -e 12 -c 2 -a 0 -i 0 -k MAC
h -t 1.034752000 -s 0 -d -1 -p BCN -e 12 -c 2 -a 0 -i 0 -k MAC -R 15.00 -D 0.00
+ -t 1.157632000 -s 0 -d -1 -p BCN -e 12 -c 2 -a 0 -i 0 -k MAC 
- -t 1.157632000 -s 0 -d -1 -p BCN -e 12 -c 2 -a 0 -i 0 -k MAC
h -t 1.157632000 -s 0 -d -1 -p BCN -e 12 -c 2 -a 0 -i 0 -k MAC -R 15.00 -D 0.00
+ -t 1.280512000 -s 0 -d -1 -p BCN -e 12 -c 2 -a 0 -i 0 -k MAC 
- -t 1.280512000 -s 0 -d -1 -p BCN -e 12 -c 2 -a 0 -i 0 -k MAC
h -t 1.280512000 -s 0 -d -1 -p BCN -e 12 -c 2 -a 0 -i 0 -k MAC -R 15.00 -D 0.00
+ -t 1.403392000 -s 0 -d -1 -p BCN -e 12 -c 2 -a 0 -i 0 -k MAC 
- -t 1.403392000 -s 0 -d -1 -p BCN -e 12 -c 2 -a 0 -i 0 -k MAC
h -t 1.403392000 -s 0 -d -1 -p BCN -e 12 -c 2 -a 0 -i 0 -k MAC -R 15.00 -D 0.00
+ -t 1.526272000 -s 0 -d -1 -p BCN -e 12 -c 2 -a 0 -i 0 -k MAC 
- -t 1.526272000 -s 0 -d -1 -p BCN -e 12 -c 2 -a 0 -i 0 -k MAC
h -t 1.526272000 -s 0 -d -1 -p BCN -e 12 -c 2 -a 0 -i 0 -k MAC -R 15.00 -D 0.00
d -t 1.526848050 -s 1 -d -1 -p BCN -e 12 -c 2 -a 0 -i 0 -k MAC
+ -t 1.649152000 -s 0 -d -1 -p BCN -e 12 -c 2 -a 0 -i 0 -k MAC 
- -t 1.649152000 -s 0 -d -1 -p BCN -e 12 -c 2 -a 0 -i 0 -k MAC
h -t 1.649152000 -s 0 -d -1 -p BCN -e 12 -c 2 -a 0 -i 0 -k MAC -R 15.00 -D 0.00
+ -t 1.772032000 -s 0 -d -1 -p BCN -e 12 -c 2 -a 0 -i 0 -k MAC 
- -t 1.772032000 -s 0 -d -1 -p BCN -e 12 -c 2 -a 0 -i 0 -k MAC
h -t 1.772032000 -s 0 -d -1 -p BCN -e 12 -c 2 -a 0 -i 0 -k MAC -R 15.00 -D 0.00
+ -t 1.894912000 -s 0 -d -1 -p BCN -e 12 -c 2 -a 0 -i 0 -k MAC 
- -t 1.894912000 -s 0 -d -1 -p BCN -e 12 -c 2 -a 0 -i 0 -k MAC
h -t 1.894912000 -s 0 -d -1 -p BCN -e 12 -c 2 -a 0 -i 0 -k MAC -R 15.00 -D 0.00
+ -t 2.017792000 -s 0 -d -1 -p BCN -e 12 -c 2 -a 0 -i 0 -k MAC 
- -t 2.017792000 -s 0 -d -1 -p BCN -e 12 -c 2 -a 0 -i 0 -k MAC
h -t 2.017792000 -s 0 -d -1 -p BCN -e 12 -c 2 -a 0 -i 0 -k MAC -R 15.00 -D 0.00
+ -t 2.140672000 -s 0 -d -1 -p BCN -e 12 -c 2 -a 0 -i 0 -k MAC 
- -t 2.140672000 -s 0 -d -1 -p BCN -e 12 -c 2 -a 0 -i 0 -k MAC
h -t 2.140672000 -s 0 -d -1 -p BCN -e 12 -c 2 -a 0 -i 0 -k MAC -R 15.00 -D 0.00
+ -t 2.263552000 -s 0 -d -1 -p BCN -e 12 -c 2 -a 0 -i 0 -k MAC 
- -t 2.263552000 -s 0 -d -1 -p BCN -e 12 -c 2 -a 0 -i 0 -k MAC
h -t 2.263552000 -s 0 -d -1 -p BCN -e 12 -c 2 -a 0 -i 0 -k MAC -R 15.00 -D 0.00
+ -t 2.386432000 -s 0 -d -1 -p BCN -e 12 -c 2 -a 0 -i 0 -k MAC 
- -t 2.386432000 -s 0 -d -1 -p BCN -e 12 -c 2 -a 0 -i 0 -k MAC
h -t 2.386432000 -s 0 -d -1 -p BCN -e 12 -c 2 -a 0 -i 0 -k MAC -R 15.00 -D 0.00
+ -t 2.509312000 -s 0 -d -1 -p BCN -e 12 -c 2 -a 0 -i 0 -k MAC 
- -t 2.509312000 -s 0 -d -1 -p BCN -e 12 -c 2 -a 0 -i 0 -k MAC
h -t 2.509312000 -s 0 -d -1 -p BCN -e 12 -c 2 -a 0 -i 0 -k MAC -R 15.00 -D 0.00
+ -t 2.632192000 -s 0 -d -1 -p BCN -e 12 -c 2 -a 0 -i 0 -k MAC 
- -t 2.632192000 -s 0 -d -1 -p BCN -e 12 -c 2 -a 0 -i 0 -k MAC
h -t 2.632192000 -s 0 -d -1 -p BCN -e 12 -c 2 -a 0 -i 0 -k MAC -R 15.00 -D 0.00
d -t 2.632768050 -s 1 -d -1 -p BCN -e 12 -c 2 -a 0 -i 0 -k MAC
+ -t 2.755072000 -s 0 -d -1 -p BCN -e 12 -c 2 -a 0 -i 0 -k MAC 
- -t 2.755072000 -s 0 -d -1 -p BCN -e 12 -c 2 -a 0 -i 0 -k MAC
h -t 2.755072000 -s 0 -d -1 -p BCN -e 12 -c 2 -a 0 -i 0 -k MAC -R 15.00 -D 0.00
+ -t 2.877952000 -s 0 -d -1 -p BCN -e 12 -c 2 -a 0 -i 0 -k MAC 
- -t 2.877952000 -s 0 -d -1 -p BCN -e 12 -c 2 -a 0 -i 0 -k MAC
h -t 2.877952000 -s 0 -d -1 -p BCN -e 12 -c 2 -a 0 -i 0 -k MAC -R 15.00 -D 0.00
+ -t 3.000832000 -s 0 -d -1 -p BCN -e 12 -c 2 -a 0 -i 0 -k MAC 
- -t 3.000832000 -s 0 -d -1 -p BCN -e 12 -c 2 -a 0 -i 0 -k MAC
h -t 3.000832000 -s 0 -d -1 -p BCN -e 12 -c 2 -a 0 -i 0 -k MAC -R 15.00 -D 0.00
+ -t 3.123712000 -s 0 -d -1 -p BCN -e 12 -c 2 -a 0 -i 0 -k MAC 
- -t 3.123712000 -s 0 -d -1 -p BCN -e 12 -c 2 -a 0 -i 0 -k MAC
h -t 3.123712000 -s 0 -d -1 -p BCN -e 12 -c 2 -a 0 -i 0 -k MAC -R 15.00 -D 0.00
+ -t 3.246592000 -s 0 -d -1 -p BCN -e 12 -c 2 -a 0 -i 0 -k MAC 
- -t 3.246592000 -s 0 -d -1 -p BCN -e 12 -c 2 -a 0 -i 0 -k MAC
h -t 3.246592000 -s 0 -d -1 -p BCN -e 12 -c 2 -a 0 -i 0 -k MAC -R 15.00 -D 0.00
+ -t 3.369472000 -s 0 -d -1 -p BCN -e 12 -c 2 -a 0 -i 0 -k MAC 
- -t 3.369472000 -s 0 -d -1 -p BCN -e 12 -c 2 -a 0 -i 0 -k MAC
h -t 3.369472000 -s 0 -d -1 -p BCN -e 12 -c 2 -a 0 -i 0 -k MAC -R 15.00 -D 0.00
+ -t 3.492352000 -s 0 -d -1 -p BCN -e 12 -c 2 -a 0 -i 0 -k MAC 
- -t 3.492352000 -s 0 -d -1 -p BCN -e 12 -c 2 -a 0 -i 0 -k MAC
h -t 3.492352000 -s 0 -d -1 -p BCN -e 12 -c 2 -a 0 -i 0 -k MAC -R 15.00 -D 0.00
+ -t 3.615232000 -s 0 -d -1 -p BCN -e 12 -c 2 -a 0 -i 0 -k MAC 
- -t 3.615232000 -s 0 -d -1 -p BCN -e 12 -c 2 -a 0 -i 0 -k MAC
h -t 3.615232000 -s 0 -d -1 -p BCN -e 12 -c 2 -a 0 -i 0 -k MAC -R 15.00 -D 0.00
+ -t 3.738112000 -s 0 -d -1 -p BCN -e 12 -c 2 -a 0 -i 0 -k MAC 
- -t 3.738112000 -s 0 -d -1 -p BCN -e 12 -c 2 -a 0 -i 0 -k MAC
h -t 3.738112000 -s 0 -d -1 -p BCN -e 12 -c 2 -a 0 -i 0 -k MAC -R 15.00 -D 0.00
+ -t 3.860992000 -s 0 -d -1 -p BCN -e 12 -c 2 -a 0 -i 0 -k MAC 
- -t 3.860992000 -s 0 -d -1 -p BCN -e 12 -c 2 -a 0 -i 0 -k MAC
h -t 3.860992000 -s 0 -d -1 -p BCN -e 12 -c 2 -a 0 -i 0 -k MAC -R 15.00 -D 0.00
+ -t 3.983872000 -s 0 -d -1 -p BCN -e 12 -c 2 -a 0 -i 0 -k MAC 
- -t 3.983872000 -s 0 -d -1 -p BCN -e 12 -c 2 -a 0 -i 0 -k MAC
h -t 3.983872000 -s 0 -d -1 -p BCN -e 12 -c 2 -a 0 -i 0 -k MAC -R 15.00 -D 0.00
+ -t 4.106752000 -s 0 -d -1 -p BCN -e 12 -c 2 -a 0 -i 0 -k MAC 
- -t 4.106752000 -s 0 -d -1 -p BCN -e 12 -c 2 -a 0 -i 0 -k MAC
h -t 4.106752000 -s 0 -d -1 -p BCN -e 12 -c 2 -a 0 -i 0 -k MAC -R 15.00 -D 0.00
+ -t 4.229632000 -s 0 -d -1 -p BCN -e 12 -c 2 -a 0 -i 0 -k MAC 
- -t 4.229632000 -s 0 -d -1 -p BCN -e 12 -c 2 -a 0 -i 0 -k MAC
h -t 4.229632000 -s 0 -d -1 -p BCN -e 12 -c 2 -a 0 -i 0 -k MAC -R 15.00 -D 0.00
+ -t 4.352512000 -s 0 -d -1 -p BCN -e 12 -c 2 -a 0 -i 0 -k MAC 
- -t 4.352512000 -s 0 -d -1 -p BCN -e 12 -c 2 -a 0 -i 0 -k MAC
h -t 4.352512000 -s 0 -d -1 -p BCN -e 12 -c 2 -a 0 -i 0 -k MAC -R 15.00 -D 0.00
+ -t 4.475392000 -s 0 -d -1 -p BCN -e 12 -c 2 -a 0 -i 0 -k MAC 
- -t 4.475392000 -s 0 -d -1 -p BCN -e 12 -c 2 -a 0 -i 0 -k MAC
h -t 4.475392000 -s 0 -d -1 -p BCN -e 12 -c 2 -a 0 -i 0 -k MAC -R 15.00 -D 0.00
+ -t 4.598272000 -s 0 -d -1 -p BCN -e 12 -c 2 -a 0 -i 0 -k MAC 
- -t 4.598272000 -s 0 -d -1 -p BCN -e 12 -c 2 -a 0 -i 0 -k MAC
h -t 4.598272000 -s 0 -d -1 -p BCN -e 12 -c 2 -a 0 -i 0 -k MAC -R 15.00 -D 0.00
+ -t 4.721152000 -s 0 -d -1 -p BCN -e 12 -c 2 -a 0 -i 0 -k MAC 
- -t 4.721152000 -s 0 -d -1 -p BCN -e 12 -c 2 -a 0 -i 0 -k MAC
h -t 4.721152000 -s 0 -d -1 -p BCN -e 12 -c 2 -a 0 -i 0 -k MAC -R 15.00 -D 0.00
+ -t 4.844032000 -s 0 -d -1 -p BCN -e 12 -c 2 -a 0 -i 0 -k MAC 
- -t 4.844032000 -s 0 -d -1 -p BCN -e 12 -c 2 -a 0 -i 0 -k MAC
h -t 4.844032000 -s 0 -d -1 -p BCN -e 12 -c 2 -a 0 -i 0 -k MAC -R 15.00 -D 0.00
+ -t 4.966912000 -s 0 -d -1 -p BCN -e 12 -c 2 -a 0 -i 0 -k MAC 
- -t 4.966912000 -s 0 -d -1 -p BCN -e 12 -c 2 -a 0 -i 0 -k MAC
h -t 4.966912000 -s 0 -d -1 -p BCN -e 12 -c 2 -a 0 -i 0 -k MAC -R 15.00 -D 0.00
+ -t 5.000640000 -s 1 -d -1 -p CM7 -e 8 -c 2 -a 0 -i 0 -k MAC 
- -t 5.000640000 -s 1 -d -1 -p CM7 -e 8 -c 2 -a 0 -i 0 -k MAC
h -t 5.000640000 -s 1 -d -1 -p CM7 -e 8 -c 2 -a 0 -i 0 -k MAC -R 15.00 -D 0.00
r -t 5.001088050 -s 0 -d -1 -p CM7 -e 8 -c 2 -a 0 -i 0 -k MAC
+ -t 5.089792000 -s 0 -d -1 -p BCN -e 12 -c 2 -a 0 -i 0 -k MAC 
- -t 5.089792000 -s 0 -d -1 -p BCN -e 12 -c 2 -a 0 -i 0 -k MAC
h -t 5.089792000 -s 0 -d -1 -p BCN -e 12 -c 2 -a 0 -i 0 -k MAC -R 15.00 -D 0.00
+ -t 5.212672000 -s 0 -d -1 -p BCN -e 12 -c 2 -a 0 -i 0 -k MAC 
- -t 5.212672000 -s 0 -d -1 -p BCN -e 12 -c 2 -a 0 -i 0 -k MAC
h -t 5.212672000 -s 0 -d -1 -p BCN -e 12 -c 2 -a 0 -i 0 -k MAC -R 15.00 -D 0.00
+ -t 5.262720000 -s 1 -d -1 -p CM7 -e 8 -c 2 -a 0 -i 0 -k MAC 
- -t 5.262720000 -s 1 -d -1 -p CM7 -e 8 -c 2 -a 0 -i 0 -k MAC
h -t 5.262720000 -s 1 -d -1 -p CM7 -e 8 -c 2 -a 0 -i 0 -k MAC -R 15.00 -D 0.00
+ -t 5.335552000 -s 0 -d -1 -p BCN -e 12 -c 2 -a 0 -i 0 -k MAC 
- -t 5.335552000 -s 0 -d -1 -p BCN -e 12 -c 2 -a 0 -i 0 -k MAC
h -t 5.335552000 -s 0 -d -1 -p BCN -e 12 -c 2 -a 0 -i 0 -k MAC -R 15.00 -D 0.00
+ -t 5.458432000 -s 0 -d -1 -p BCN -e 12 -c 2 -a 0 -i 0 -k MAC 
- -t 5.458432000 -s 0 -d -1 -p BCN -e 12 -c 2 -a 0 -i 0 -k MAC
h -t 5.458432000 -s 0 -d -1 -p BCN -e 12 -c 2 -a 0 -i 0 -k MAC -R 15.00 -D 0.00
+ -t 5.526400000 -s 1 -d -1 -p CM7 -e 8 -c 2 -a 0 -i 0 -k MAC 
- -t 5.526400000 -s 1 -d -1 -p CM7 -e 8 -c 2 -a 0 -i 0 -k MAC
h -t 5.526400000 -s 1 -d -1 -p CM7 -e 8 -c 2 -a 0 -i 0 -k MAC -R 15.00 -D 0.00
+ -t 5.581312000 -s 0 -d -1 -p BCN -e 12 -c 2 -a 0 -i 0 -k MAC 
- -t 5.581312000 -s 0 -d -1 -p BCN -e 12 -c 2 -a 0 -i 0 -k MAC
h -t 5.581312000 -s 0 -d -1 -p BCN -e 12 -c 2 -a 0 -i 0 -k MAC -R 15.00 -D 0.00
+ -t 5.704192000 -s 0 -d -1 -p BCN -e 12 -c 2 -a 0 -i 0 -k MAC 
- -t 5.704192000 -s 0 -d -1 -p BCN -e 12 -c 2 -a 0 -i 0 -k MAC
h -t 5.704192000 -s 0 -d -1 -p BCN -e 12 -c 2 -a 0 -i 0 -k MAC -R 15.00 -D 0.00
+ -t 5.790400000 -s 1 -d 0 -p ACRP -e 17 -c 2 -a 0 -i 0 -k MAC 
- -t 5.790400000 -s 1 -d 0 -p ACRP -e 17 -c 2 -a 0 -i 0 -k MAC
h -t 5.790400000 -s 1 -d 0 -p ACRP -e 17 -c 2 -a 0 -i 0 -k MAC
r -t 5.791136050 -s 0 -d 0 -p ACRP -e 17 -c 2 -a 0 -i 0 -k MAC
+ -t 5.791552000 -s 0 -d 1 -p ACK -e 5 -c 2 -a 0 -i 0 -k MAC 
- -t 5.791552000 -s 0 -d 1 -p ACK -e 5 -c 2 -a 0 -i 0 -k MAC
h -t 5.791552000 -s 0 -d 1 -p ACK -e 5 -c 2 -a 0 -i 0 -k MAC
r -t 5.791904050 -s 1 -d 1 -p ACK -e 5 -c 2 -a 0 -i 0 -k MAC
+ -t 5.827072000 -s 0 -d -1 -p BCN -e 20 -c 2 -a 0 -i 0 -k MAC 
- -t 5.827072000 -s 0 -d -1 -p BCN -e 20 -c 2 -a 0 -i 0 -k MAC
h -t 5.827072000 -s 0 -d -1 -p BCN -e 20 -c 2 -a 0 -i 0 -k MAC -R 15.00 -D 0.00
+ -t 5.949952000 -s 0 -d -1 -p BCN -e 20 -c 2 -a 0 -i 0 -k MAC 
- -t 5.949952000 -s 0 -d -1 -p BCN -e 20 -c 2 -a 0 -i 0 -k MAC
h -t 5.949952000 -s 0 -d -1 -p BCN -e 20 -c 2 -a 0 -i 0 -k MAC -R 15.00 -D 0.00
+ -t 6.072832000 -s 0 -d -1 -p BCN -e 20 -c 2 -a 0 -i 0 -k MAC 
- -t 6.072832000 -s 0 -d -1 -p BCN -e 20 -c 2 -a 0 -i 0 -k MAC
h -t 6.072832000 -s 0 -d -1 -p BCN -e 20 -c 2 -a 0 -i 0 -k MAC -R 15.00 -D 0.00
+ -t 6.195712000 -s 0 -d -1 -p BCN -e 20 -c 2 -a 0 -i 0 -k MAC 
- -t 6.195712000 -s 0 -d -1 -p BCN -e 20 -c 2 -a 0 -i 0 -k MAC
h -t 6.195712000 -s 0 -d -1 -p BCN -e 20 -c 2 -a 0 -i 0 -k MAC -R 15.00 -D 0.00
+ -t 6.283424050 -s 1 -d 0 -p CM4 -e 16 -c 2 -a 0 -i 0 -k MAC 
- -t 6.283424050 -s 1 -d 0 -p CM4 -e 16 -c 2 -a 0 -i 0 -k MAC
h -t 6.283424050 -s 1 -d 0 -p CM4 -e 16 -c 2 -a 0 -i 0 -k MAC
r -t 6.284128100 -s 0 -d 0 -p CM4 -e 16 -c 2 -a 0 -i 0 -k MAC
+ -t 6.284352000 -s 0 -d 1 -p ACK -e 5 -c 2 -a 0 -i 0 -k MAC 
- -t 6.284352000 -s 0 -d 1 -p ACK -e 5 -c 2 -a 0 -i 0 -k MAC
h -t 6.284352000 -s 0 -d 1 -p ACK -e 5 -c 2 -a 0 -i 0 -k MAC
r -t 6.284704050 -s 1 -d 1 -p ACK -e 5 -c 2 -a 0 -i 0 -k MAC
+ -t 6.284992000 -s 0 -d 1 -p CM2 -e 25 -c 2 -a 0 -i 0 -k MAC 
- -t 6.284992000 -s 0 -d 1 -p CM2 -e 25 -c 2 -a 0 -i 0 -k MAC
h -t 6.284992000 -s 0 -d 1 -p CM2 -e 25 -c 2 -a 0 -i 0 -k MAC
r -t 6.285984050 -s 1 -d 1 -p CM2 -e 25 -c 2 -a 0 -i 0 -k MAC
+ -t 6.286176050 -s 1 -d 0 -p ACK -e 5 -c 2 -a 0 -i 0 -k MAC 
- -t 6.286176050 -s 1 -d 0 -p ACK -e 5 -c 2 -a 0 -i 0 -k MAC
h -t 6.286176050 -s 1 -d 0 -p ACK -e 5 -c 2 -a 0 -i 0 -k MAC
r -t 6.286528100 -s 0 -d 0 -p ACK -e 5 -c 2 -a 0 -i 0 -k MAC
n -t 6.287168051 -s 1 -S DLABEL -l [0] -L ""
+ -t 6.318592000 -s 0 -d -1 -p BCN -e 12 -c 2 -a 0 -i 0 -k MAC 
- -t 6.318592000 -s 0 -d -1 -p BCN -e 12 -c 2 -a 0 -i 0 -k MAC
h -t 6.318592000 -s 0 -d -1 -p BCN -e 12 -c 2 -a 0 -i 0 -k MAC -R 15.00 -D 0.00
r -t 6.319168050 -s 1 -d -1 -p BCN -e 12 -c 2 -a 0 -i 0 -k MAC
+ -t 6.441472000 -s 0 -d -1 -p BCN -e 12 -c 2 -a 0 -i 0 -k MAC 
- -t 6.441472000 -s 0 -d -1 -p BCN -e 12 -c 2 -a 0 -i 0 -k MAC
h -t 6.441472000 -s 0 -d -1 -p BCN -e 12 -c 2 -a 0 -i 0 -k MAC -R 15.00 -D 0.00
d -t 6.442048050 -s 1 -d -1 -p BCN -e 12 -c 2 -a 0 -i 0 -k MAC
+ -t 6.564352000 -s 0 -d -1 -p BCN -e 12 -c 2 -a 0 -i 0 -k MAC 
- -t 6.564352000 -s 0 -d -1 -p BCN -e 12 -c 2 -a 0 -i 0 -k MAC
h -t 6.564352000 -s 0 -d -1 -p BCN -e 12 -c 2 -a 0 -i 0 -k MAC -R 15.00 -D 0.00
r -t 6.564928050 -s 1 -d -1 -p BCN -e 12 -c 2 -a 0 -i 0 -k MAC
+ -t 6.687232000 -s 0 -d -1 -p BCN -e 12 -c 2 -a 0 -i 0 -k MAC 
- -t 6.687232000 -s 0 -d -1 -p BCN -e 12 -c 2 -a 0 -i 0 -k MAC
h -t 6.687232000 -s 0 -d -1 -p BCN -e 12 -c 2 -a 0 -i 0 -k MAC -R 15.00 -D 0.00
r -t 6.687808050 -s 1 -d -1 -p BCN -e 12 -c 2 -a 0 -i 0 -k MAC
+ -t 6.810112000 -s 0 -d -1 -p BCN -e 12 -c 2 -a 0 -i 0 -k MAC 
- -t 6.810112000 -s 0 -d -1 -p BCN -e 12 -c 2 -a 0 -i 0 -k MAC
h -t 6.810112000 -s 0 -d -1 -p BCN -e 12 -c 2 -a 0 -i 0 -k MAC -R 15.00 -D 0.00
d -t 6.810688050 -s 1 -d -1 -p BCN -e 12 -c 2 -a 0 -i 0 -k MAC
+ -t 6.932992000 -s 0 -d -1 -p BCN -e 12 -c 2 -a 0 -i 0 -k MAC 
- -t 6.932992000 -s 0 -d -1 -p BCN -e 12 -c 2 -a 0 -i 0 -k MAC
h -t 6.932992000 -s 0 -d -1 -p BCN -e 12 -c 2 -a 0 -i 0 -k MAC -R 15.00 -D 0.00
r -t 6.933568050 -s 1 -d -1 -p BCN -e 12 -c 2 -a 0 -i 0 -k MAC
+ -t 7.055872000 -s 0 -d -1 -p BCN -e 12 -c 2 -a 0 -i 0 -k MAC 
- -t 7.055872000 -s 0 -d -1 -p BCN -e 12 -c 2 -a 0 -i 0 -k MAC
h -t 7.055872000 -s 0 -d -1 -p BCN -e 12 -c 2 -a 0 -i 0 -k MAC -R 15.00 -D 0.00
r -t 7.056448050 -s 1 -d -1 -p BCN -e 12 -c 2 -a 0 -i 0 -k MAC
+ -t 7.178752000 -s 0 -d -1 -p BCN -e 12 -c 2 -a 0 -i 0 -k MAC 
- -t 7.178752000 -s 0 -d -1 -p BCN -e 12 -c 2 -a 0 -i 0 -k MAC
h -t 7.178752000 -s 0 -d -1 -p BCN -e 12 -c 2 -a 0 -i 0 -k MAC -R 15.00 -D 0.00
r -t 7.179328050 -s 1 -d -1 -p BCN -e 12 -c 2 -a 0 -i 0 -k MAC
+ -t 7.301632000 -s 0 -d -1 -p BCN -e 12 -c 2 -a 0 -i 0 -k MAC 
- -t 7.301632000 -s 0 -d -1 -p BCN -e 12 -c 2 -a 0 -i 0 -k MAC
h -t 7.301632000 -s 0 -d -1 -p BCN -e 12 -c 2 -a 0 -i 0 -k MAC -R 15.00 -D 0.00
r -t 7.302208050 -s 1 -d -1 -p BCN -e 12 -c 2 -a 0 -i 0 -k MAC
+ -t 7.424512000 -s 0 -d -1 -p BCN -e 12 -c 2 -a 0 -i 0 -k MAC 
- -t 7.424512000 -s 0 -d -1 -p BCN -e 12 -c 2 -a 0 -i 0 -k MAC
h -t 7.424512000 -s 0 -d -1 -p BCN -e 12 -c 2 -a 0 -i 0 -k MAC -R 15.00 -D 0.00
r -t 7.425088050 -s 1 -d -1 -p BCN -e 12 -c 2 -a 0 -i 0 -k MAC
+ -t 7.547392000 -s 0 -d -1 -p BCN -e 12 -c 2 -a 0 -i 0 -k MAC 
- -t 7.547392000 -s 0 -d -1 -p BCN -e 12 -c 2 -a 0 -i 0 -k MAC
h -t 7.547392000 -s 0 -d -1 -p BCN -e 12 -c 2 -a 0 -i 0 -k MAC -R 15.00 -D 0.00
d -t 7.547968050 -s 1 -d -1 -p BCN -e 12 -c 2 -a 0 -i 0 -k MAC
+ -t 7.670272000 -s 0 -d -1 -p BCN -e 12 -c 2 -a 0 -i 0 -k MAC 
- -t 7.670272000 -s 0 -d -1 -p BCN -e 12 -c 2 -a 0 -i 0 -k MAC
h -t 7.670272000 -s 0 -d -1 -p BCN -e 12 -c 2 -a 0 -i 0 -k MAC -R 15.00 -D 0.00
r -t 7.670848050 -s 1 -d -1 -p BCN -e 12 -c 2 -a 0 -i 0 -k MAC
+ -t 7.793152000 -s 0 -d -1 -p BCN -e 12 -c 2 -a 0 -i 0 -k MAC 
- -t 7.793152000 -s 0 -d -1 -p BCN -e 12 -c 2 -a 0 -i 0 -k MAC
h -t 7.793152000 -s 0 -d -1 -p BCN -e 12 -c 2 -a 0 -i 0 -k MAC -R 15.00 -D 0.00
r -t 7.793728050 -s 1 -d -1 -p BCN -e 12 -c 2 -a 0 -i 0 -k MAC
+ -t 7.916032000 -s 0 -d -1 -p BCN -e 12 -c 2 -a 0 -i 0 -k MAC 
- -t 7.916032000 -s 0 -d -1 -p BCN -e 12 -c 2 -a 0 -i 0 -k MAC
h -t 7.916032000 -s 0 -d -1 -p BCN -e 12 -c 2 -a 0 -i 0 -k MAC -R 15.00 -D 0.00
r -t 7.916608050 -s 1 -d -1 -p BCN -e 12 -c 2 -a 0 -i 0 -k MAC
+ -t 8.038912000 -s 0 -d -1 -p BCN -e 12 -c 2 -a 0 -i 0 -k MAC 
- -t 8.038912000 -s 0 -d -1 -p BCN -e 12 -c 2 -a 0 -i 0 -k MAC
h -t 8.038912000 -s 0 -d -1 -p BCN -e 12 -c 2 -a 0 -i 0 -k MAC -R 15.00 -D 0.00
r -t 8.039488050 -s 1 -d -1 -p BCN -e 12 -c 2 -a 0 -i 0 -k MAC
+ -t 8.161792000 -s 0 -d -1 -p BCN -e 12 -c 2 -a 0 -i 0 -k MAC 
- -t 8.161792000 -s 0 -d -1 -p BCN -e 12 -c 2 -a 0 -i 0 -k MAC
h -t 8.161792000 -s 0 -d -1 -p BCN -e 12 -c 2 -a 0 -i 0 -k MAC -R 15.00 -D 0.00
r -t 8.162368050 -s 1 -d -1 -p BCN -e 12 -c 2 -a 0 -i 0 -k MAC
+ -t 8.284672000 -s 0 -d -1 -p BCN -e 12 -c 2 -a 0 -i 0 -k MAC 
- -t 8.284672000 -s 0 -d -1 -p BCN -e 12 -c 2 -a 0 -i 0 -k MAC
h -t 8.284672000 -s 0 -d -1 -p BCN -e 12 -c 2 -a 0 -i 0 -k MAC -R 15.00 -D 0.00
r -t 8.285248050 -s 1 -d -1 -p BCN -e 12 -c 2 -a 0 -i 0 -k MAC
+ -t 8.407552000 -s 0 -d -1 -p BCN -e 12 -c 2 -a 0 -i 0 -k MAC 
- -t 8.407552000 -s 0 -d -1 -p BCN -e 12 -c 2 -a 0 -i 0 -k MAC
h -t 8.407552000 -s 0 -d -1 -p BCN -e 12 -c 2 -a 0 -i 0 -k MAC -R 15.00 -D 0.00
r -t 8.408128050 -s 1 -d -1 -p BCN -e 12 -c 2 -a 0 -i 0 -k MAC
+ -t 8.530432000 -s 0 -d -1 -p BCN -e 12 -c 2 -a 0 -i 0 -k MAC 
- -t 8.530432000 -s 0 -d -1 -p BCN -e 12 -c 2 -a 0 -i 0 -k MAC
h -t 8.530432000 -s 0 -d -1 -p BCN -e 12 -c 2 -a 0 -i 0 -k MAC -R 15.00 -D 0.00
r -t 8.531008050 -s 1 -d -1 -p BCN -e 12 -c 2 -a 0 -i 0 -k MAC
+ -t 8.653312000 -s 0 -d -1 -p BCN -e 12 -c 2 -a 0 -i 0 -k MAC 
- -t 8.653312000 -s 0 -d -1 -p BCN -e 12 -c 2 -a 0 -i 0 -k MAC
h -t 8.653312000 -s 0 -d -1 -p BCN -e 12 -c 2 -a 0 -i 0 -k MAC -R 15.00 -D 0.00
r -t 8.653888050 -s 1 -d -1 -p BCN -e 12 -c 2 -a 0 -i 0 -k MAC
+ -t 8.776192000 -s 0 -d -1 -p BCN -e 12 -c 2 -a 0 -i 0 -k MAC 
- -t 8.776192000 -s 0 -d -1 -p BCN -e 12 -c 2 -a 0 -i 0 -k MAC
h -t 8.776192000 -s 0 -d -1 -p BCN -e 12 -c 2 -a 0 -i 0 -k MAC -R 15.00 -D 0.00
r -t 8.776768050 -s 1 -d -1 -p BCN -e 12 -c 2 -a 0 -i 0 -k MAC
+ -t 8.899072000 -s 0 -d -1 -p BCN -e 12 -c 2 -a 0 -i 0 -k MAC 
- -t 8.899072000 -s 0 -d -1 -p BCN -e 12 -c 2 -a 0 -i 0 -k MAC
h -t 8.899072000 -s 0 -d -1 -p BCN -e 12 -c 2 -a 0 -i 0 -k MAC -R 15.00 -D 0.00
r -t 8.899648050 -s 1 -d -1 -p BCN -e 12 -c 2 -a 0 -i 0 -k MAC
+ -t 9.021952000 -s 0 -d -1 -p BCN -e 12 -c 2 -a 0 -i 0 -k MAC 
- -t 9.021952000 -s 0 -d -1 -p BCN -e 12 -c 2 -a 0 -i 0 -k MAC
h -t 9.021952000 -s 0 -d -1 -p BCN -e 12 -c 2 -a 0 -i 0 -k MAC -R 15.00 -D 0.00
r -t 9.022528050 -s 1 -d -1 -p BCN -e 12 -c 2 -a 0 -i 0 -k MAC
+ -t 9.144832000 -s 0 -d -1 -p BCN -e 12 -c 2 -a 0 -i 0 -k MAC 
- -t 9.144832000 -s 0 -d -1 -p BCN -e 12 -c 2 -a 0 -i 0 -k MAC
h -t 9.144832000 -s 0 -d -1 -p BCN -e 12 -c 2 -a 0 -i 0 -k MAC -R 15.00 -D 0.00
r -t 9.145408050 -s 1 -d -1 -p BCN -e 12 -c 2 -a 0 -i 0 -k MAC
+ -t 9.267712000 -s 0 -d -1 -p BCN -e 12 -c 2 -a 0 -i 0 -k MAC 
- -t 9.267712000 -s 0 -d -1 -p BCN -e 12 -c 2 -a 0 -i 0 -k MAC
h -t 9.267712000 -s 0 -d -1 -p BCN -e 12 -c 2 -a 0 -i 0 -k MAC -R 15.00 -D 0.00
r -t 9.268288050 -s 1 -d -1 -p BCN -e 12 -c 2 -a 0 -i 0 -k MAC
+ -t 9.390592000 -s 0 -d -1 -p BCN -e 12 -c 2 -a 0 -i 0 -k MAC 
- -t 9.390592000 -s 0 -d -1 -p BCN -e 12 -c 2 -a 0 -i 0 -k MAC
h -t 9.390592000 -s 0 -d -1 -p BCN -e 12 -c 2 -a 0 -i 0 -k MAC -R 15.00 -D 0.00
r -t 9.391168050 -s 1 -d -1 -p BCN -e 12 -c 2 -a 0 -i 0 -k MAC
+ -t 9.513472000 -s 0 -d -1 -p BCN -e 12 -c 2 -a 0 -i 0 -k MAC 
- -t 9.513472000 -s 0 -d -1 -p BCN -e 12 -c 2 -a 0 -i 0 -k MAC
h -t 9.513472000 -s 0 -d -1 -p BCN -e 12 -c 2 -a 0 -i 0 -k MAC -R 15.00 -D 0.00
r -t 9.514048050 -s 1 -d -1 -p BCN -e 12 -c 2 -a 0 -i 0 -k MAC
+ -t 9.636352000 -s 0 -d -1 -p BCN -e 12 -c 2 -a 0 -i 0 -k MAC 
- -t 9.636352000 -s 0 -d -1 -p BCN -e 12 -c 2 -a 0 -i 0 -k MAC
h -t 9.636352000 -s 0 -d -1 -p BCN -e 12 -c 2 -a 0 -i 0 -k MAC -R 15.00 -D 0.00
r -t 9.636928050 -s 1 -d -1 -p BCN -e 12 -c 2 -a 0 -i 0 -k MAC
+ -t 9.759232000 -s 0 -d -1 -p BCN -e 12 -c 2 -a 0 -i 0 -k MAC 
- -t 9.759232000 -s 0 -d -1 -p BCN -e 12 -c 2 -a 0 -i 0 -k MAC
h -t 9.759232000 -s 0 -d -1 -p BCN -e 12 -c 2 -a 0 -i 0 -k MAC -R 15.00 -D 0.00
r -t 9.759808050 -s 1 -d -1 -p BCN -e 12 -c 2 -a 0 -i 0 -k MAC
+ -t 9.882112000 -s 0 -d -1 -p BCN -e 12 -c 2 -a 0 -i 0 -k MAC 
- -t 9.882112000 -s 0 -d -1 -p BCN -e 12 -c 2 -a 0 -i 0 -k MAC
h -t 9.882112000 -s 0 -d -1 -p BCN -e 12 -c 2 -a 0 -i 0 -k MAC -R 15.00 -D 0.00
r -t 9.882688050 -s 1 -d -1 -p BCN -e 12 -c 2 -a 0 -i 0 -k MAC
+ -t 10.004992000 -s 0 -d -1 -p BCN -e 12 -c 2 -a 0 -i 0 -k MAC 
- -t 10.004992000 -s 0 -d -1 -p BCN -e 12 -c 2 -a 0 -i 0 -k MAC
h -t 10.004992000 -s 0 -d -1 -p BCN -e 12 -c 2 -a 0 -i 0 -k MAC -R 15.00 -D 0.00
d -t 10.005568050 -s 1 -d -1 -p BCN -e 12 -c 2 -a 0 -i 0 -k MAC
+ -t 10.127872000 -s 0 -d -1 -p BCN -e 12 -c 2 -a 0 -i 0 -k MAC 
- -t 10.127872000 -s 0 -d -1 -p BCN -e 12 -c 2 -a 0 -i 0 -k MAC
h -t 10.127872000 -s 0 -d -1 -p BCN -e 12 -c 2 -a 0 -i 0 -k MAC -R 15.00 -D 0.00
r -t 10.128448050 -s 1 -d -1 -p BCN -e 12 -c 2 -a 0 -i 0 -k MAC
+ -t 10.250752000 -s 0 -d -1 -p BCN -e 12 -c 2 -a 0 -i 0 -k MAC 
- -t 10.250752000 -s 0 -d -1 -p BCN -e 12 -c 2 -a 0 -i 0 -k MAC
h -t 10.250752000 -s 0 -d -1 -p BCN -e 12 -c 2 -a 0 -i 0 -k MAC -R 15.00 -D 0.00
r -t 10.251328050 -s 1 -d -1 -p BCN -e 12 -c 2 -a 0 -i 0 -k MAC
+ -t 10.373632000 -s 0 -d -1 -p BCN -e 12 -c 2 -a 0 -i 0 -k MAC 
- -t 10.373632000 -s 0 -d -1 -p BCN -e 12 -c 2 -a 0 -i 0 -k MAC
h -t 10.373632000 -s 0 -d -1 -p BCN -e 12 -c 2 -a 0 -i 0 -k MAC -R 15.00 -D 0.00
r -t 10.374208050 -s 1 -d -1 -p BCN -e 12 -c 2 -a 0 -i 0 -k MAC
+ -t 10.496512000 -s 0 -d -1 -p BCN -e 12 -c 2 -a 0 -i 0 -k MAC 
- -t 10.496512000 -s 0 -d -1 -p BCN -e 12 -c 2 -a 0 -i 0 -k MAC
h -t 10.496512000 -s 0 -d -1 -p BCN -e 12 -c 2 -a 0 -i 0 -k MAC -R 15.00 -D 0.00
r -t 10.497088050 -s 1 -d -1 -p BCN -e 12 -c 2 -a 0 -i 0 -k MAC
+ -t 10.619392000 -s 0 -d -1 -p BCN -e 12 -c 2 -a 0 -i 0 -k MAC 
- -t 10.619392000 -s 0 -d -1 -p BCN -e 12 -c 2 -a 0 -i 0 -k MAC
h -t 10.619392000 -s 0 -d -1 -p BCN -e 12 -c 2 -a 0 -i 0 -k MAC -R 15.00 -D 0.00
r -t 10.619968050 -s 1 -d -1 -p BCN -e 12 -c 2 -a 0 -i 0 -k MAC
+ -t 10.742272000 -s 0 -d -1 -p BCN -e 12 -c 2 -a 0 -i 0 -k MAC 
- -t 10.742272000 -s 0 -d -1 -p BCN -e 12 -c 2 -a 0 -i 0 -k MAC
h -t 10.742272000 -s 0 -d -1 -p BCN -e 12 -c 2 -a 0 -i 0 -k MAC -R 15.00 -D 0.00
r -t 10.742848050 -s 1 -d -1 -p BCN -e 12 -c 2 -a 0 -i 0 -k MAC
+ -t 10.865152000 -s 0 -d -1 -p BCN -e 12 -c 2 -a 0 -i 0 -k MAC 
- -t 10.865152000 -s 0 -d -1 -p BCN -e 12 -c 2 -a 0 -i 0 -k MAC
h -t 10.865152000 -s 0 -d -1 -p BCN -e 12 -c 2 -a 0 -i 0 -k MAC -R 15.00 -D 0.00
r -t 10.865728050 -s 1 -d -1 -p BCN -e 12 -c 2 -a 0 -i 0 -k MAC
+ -t 10.988032000 -s 0 -d -1 -p BCN -e 12 -c 2 -a 0 -i 0 -k MAC 
- -t 10.988032000 -s 0 -d -1 -p BCN -e 12 -c 2 -a 0 -i 0 -k MAC
h -t 10.988032000 -s 0 -d -1 -p BCN -e 12 -c 2 -a 0 -i 0 -k MAC -R 15.00 -D 0.00
r -t 10.988608050 -s 1 -d -1 -p BCN -e 12 -c 2 -a 0 -i 0 -k MAC
+ -t 11.110912000 -s 0 -d -1 -p BCN -e 12 -c 2 -a 0 -i 0 -k MAC 
- -t 11.110912000 -s 0 -d -1 -p BCN -e 12 -c 2 -a 0 -i 0 -k MAC
h -t 11.110912000 -s 0 -d -1 -p BCN -e 12 -c 2 -a 0 -i 0 -k MAC -R 15.00 -D 0.00
r -t 11.111488050 -s 1 -d -1 -p BCN -e 12 -c 2 -a 0 -i 0 -k MAC
+ -t 11.233792000 -s 0 -d -1 -p BCN -e 12 -c 2 -a 0 -i 0 -k MAC 
- -t 11.233792000 -s 0 -d -1 -p BCN -e 12 -c 2 -a 0 -i 0 -k MAC
h -t 11.233792000 -s 0 -d -1 -p BCN -e 12 -c 2 -a 0 -i 0 -k MAC -R 15.00 -D 0.00
r -t 11.234368050 -s 1 -d -1 -p BCN -e 12 -c 2 -a 0 -i 0 -k MAC
+ -t 11.356672000 -s 0 -d -1 -p BCN -e 12 -c 2 -a 0 -i 0 -k MAC 
- -t 11.356672000 -s 0 -d -1 -p BCN -e 12 -c 2 -a 0 -i 0 -k MAC
h -t 11.356672000 -s 0 -d -1 -p BCN -e 12 -c 2 -a 0 -i 0 -k MAC -R 15.00 -D 0.00
r -t 11.357248050 -s 1 -d -1 -p BCN -e 12 -c 2 -a 0 -i 0 -k MAC
+ -t 11.479552000 -s 0 -d -1 -p BCN -e 12 -c 2 -a 0 -i 0 -k MAC 
- -t 11.479552000 -s 0 -d -1 -p BCN -e 12 -c 2 -a 0 -i 0 -k MAC
h -t 11.479552000 -s 0 -d -1 -p BCN -e 12 -c 2 -a 0 -i 0 -k MAC -R 15.00 -D 0.00
r -t 11.480128050 -s 1 -d -1 -p BCN -e 12 -c 2 -a 0 -i 0 -k MAC
+ -t 11.602432000 -s 0 -d -1 -p BCN -e 12 -c 2 -a 0 -i 0 -k MAC 
- -t 11.602432000 -s 0 -d -1 -p BCN -e 12 -c 2 -a 0 -i 0 -k MAC
h -t 11.602432000 -s 0 -d -1 -p BCN -e 12 -c 2 -a 0 -i 0 -k MAC -R 15.00 -D 0.00
d -t 11.603008050 -s 1 -d -1 -p BCN -e 12 -c 2 -a 0 -i 0 -k MAC
+ -t 11.725312000 -s 0 -d -1 -p BCN -e 12 -c 2 -a 0 -i 0 -k MAC 
- -t 11.725312000 -s 0 -d -1 -p BCN -e 12 -c 2 -a 0 -i 0 -k MAC
h -t 11.725312000 -s 0 -d -1 -p BCN -e 12 -c 2 -a 0 -i 0 -k MAC -R 15.00 -D 0.00
r -t 11.725888050 -s 1 -d -1 -p BCN -e 12 -c 2 -a 0 -i 0 -k MAC
+ -t 11.848192000 -s 0 -d -1 -p BCN -e 12 -c 2 -a 0 -i 0 -k MAC 
- -t 11.848192000 -s 0 -d -1 -p BCN -e 12 -c 2 -a 0 -i 0 -k MAC
h -t 11.848192000 -s 0 -d -1 -p BCN -e 12 -c 2 -a 0 -i 0 -k MAC -R 15.00 -D 0.00
r -t 11.848768050 -s 1 -d -1 -p BCN -e 12 -c 2 -a 0 -i 0 -k MAC
+ -t 11.971072000 -s 0 -d -1 -p BCN -e 12 -c 2 -a 0 -i 0 -k MAC 
- -t 11.971072000 -s 0 -d -1 -p BCN -e 12 -c 2 -a 0 -i 0 -k MAC
h -t 11.971072000 -s 0 -d -1 -p BCN -e 12 -c 2 -a 0 -i 0 -k MAC -R 15.00 -D 0.00
r -t 11.971648050 -s 1 -d -1 -p BCN -e 12 -c 2 -a 0 -i 0 -k MAC
+ -t 12.093952000 -s 0 -d -1 -p BCN -e 12 -c 2 -a 0 -i 0 -k MAC 
- -t 12.093952000 -s 0 -d -1 -p BCN -e 12 -c 2 -a 0 -i 0 -k MAC
h -t 12.093952000 -s 0 -d -1 -p BCN -e 12 -c 2 -a 0 -i 0 -k MAC -R 15.00 -D 0.00
r -t 12.094528050 -s 1 -d -1 -p BCN -e 12 -c 2 -a 0 -i 0 -k MAC
+ -t 12.216832000 -s 0 -d -1 -p BCN -e 12 -c 2 -a 0 -i 0 -k MAC 
- -t 12.216832000 -s 0 -d -1 -p BCN -e 12 -c 2 -a 0 -i 0 -k MAC
h -t 12.216832000 -s 0 -d -1 -p BCN -e 12 -c 2 -a 0 -i 0 -k MAC -R 15.00 -D 0.00
r -t 12.217408050 -s 1 -d -1 -p BCN -e 12 -c 2 -a 0 -i 0 -k MAC
+ -t 12.339712000 -s 0 -d -1 -p BCN -e 12 -c 2 -a 0 -i 0 -k MAC 
- -t 12.339712000 -s 0 -d -1 -p BCN -e 12 -c 2 -a 0 -i 0 -k MAC
h -t 12.339712000 -s 0 -d -1 -p BCN -e 12 -c 2 -a 0 -i 0 -k MAC -R 15.00 -D 0.00
r -t 12.340288050 -s 1 -d -1 -p BCN -e 12 -c 2 -a 0 -i 0 -k MAC
+ -t 12.462592000 -s 0 -d -1 -p BCN -e 12 -c 2 -a 0 -i 0 -k MAC 
- -t 12.462592000 -s 0 -d -1 -p BCN -e 12 -c 2 -a 0 -i 0 -k MAC
h -t 12.462592000 -s 0 -d -1 -p BCN -e 12 -c 2 -a 0 -i 0 -k MAC -R 15.00 -D 0.00
r -t 12.463168050 -s 1 -d -1 -p BCN -e 12 -c 2 -a 0 -i 0 -k MAC
+ -t 12.585472000 -s 0 -d -1 -p BCN -e 12 -c 2 -a 0 -i 0 -k MAC 
- -t 12.585472000 -s 0 -d -1 -p BCN -e 12 -c 2 -a 0 -i 0 -k MAC
h -t 12.585472000 -s 0 -d -1 -p BCN -e 12 -c 2 -a 0 -i 0 -k MAC -R 15.00 -D 0.00
r -t 12.586048050 -s 1 -d -1 -p BCN -e 12 -c 2 -a 0 -i 0 -k MAC
+ -t 12.708352000 -s 0 -d -1 -p BCN -e 12 -c 2 -a 0 -i 0 -k MAC 
- -t 12.708352000 -s 0 -d -1 -p BCN -e 12 -c 2 -a 0 -i 0 -k MAC
h -t 12.708352000 -s 0 -d -1 -p BCN -e 12 -c 2 -a 0 -i 0 -k MAC -R 15.00 -D 0.00
r -t 12.708928050 -s 1 -d -1 -p BCN -e 12 -c 2 -a 0 -i 0 -k MAC
+ -t 12.831232000 -s 0 -d -1 -p BCN -e 12 -c 2 -a 0 -i 0 -k MAC 
- -t 12.831232000 -s 0 -d -1 -p BCN -e 12 -c 2 -a 0 -i 0 -k MAC
h -t 12.831232000 -s 0 -d -1 -p BCN -e 12 -c 2 -a 0 -i 0 -k MAC -R 15.00 -D 0.00
r -t 12.831808050 -s 1 -d -1 -p BCN -e 12 -c 2 -a 0 -i 0 -k MAC
+ -t 12.954112000 -s 0 -d -1 -p BCN -e 12 -c 2 -a 0 -i 0 -k MAC 
- -t 12.954112000 -s 0 -d -1 -p BCN -e 12 -c 2 -a 0 -i 0 -k MAC
h -t 12.954112000 -s 0 -d -1 -p BCN -e 12 -c 2 -a 0 -i 0 -k MAC -R 15.00 -D 0.00
r -t 12.954688050 -s 1 -d -1 -p BCN -e 12 -c 2 -a 0 -i 0 -k MAC
+ -t 13.076992000 -s 0 -d -1 -p BCN -e 12 -c 2 -a 0 -i 0 -k MAC 
- -t 13.076992000 -s 0 -d -1 -p BCN -e 12 -c 2 -a 0 -i 0 -k MAC
h -t 13.076992000 -s 0 -d -1 -p BCN -e 12 -c 2 -a 0 -i 0 -k MAC -R 15.00 -D 0.00
r -t 13.077568050 -s 1 -d -1 -p BCN -e 12 -c 2 -a 0 -i 0 -k MAC
+ -t 13.199872000 -s 0 -d -1 -p BCN -e 12 -c 2 -a 0 -i 0 -k MAC 
- -t 13.199872000 -s 0 -d -1 -p BCN -e 12 -c 2 -a 0 -i 0 -k MAC
h -t 13.199872000 -s 0 -d -1 -p BCN -e 12 -c 2 -a 0 -i 0 -k MAC -R 15.00 -D 0.00
r -t 13.200448050 -s 1 -d -1 -p BCN -e 12 -c 2 -a 0 -i 0 -k MAC
+ -t 13.322752000 -s 0 -d -1 -p BCN -e 12 -c 2 -a 0 -i 0 -k MAC 
- -t 13.322752000 -s 0 -d -1 -p BCN -e 12 -c 2 -a 0 -i 0 -k MAC
h -t 13.322752000 -s 0 -d -1 -p BCN -e 12 -c 2 -a 0 -i 0 -k MAC -R 15.00 -D 0.00
r -t 13.323328050 -s 1 -d -1 -p BCN -e 12 -c 2 -a 0 -i 0 -k MAC
+ -t 13.445632000 -s 0 -d -1 -p BCN -e 12 -c 2 -a 0 -i 0 -k MAC 
- -t 13.445632000 -s 0 -d -1 -p BCN -e 12 -c 2 -a 0 -i 0 -k MAC
h -t 13.445632000 -s 0 -d -1 -p BCN -e 12 -c 2 -a 0 -i 0 -k MAC -R 15.00 -D 0.00
r -t 13.446208050 -s 1 -d -1 -p BCN -e 12 -c 2 -a 0 -i 0 -k MAC
+ -t 13.568512000 -s 0 -d -1 -p BCN -e 12 -c 2 -a 0 -i 0 -k MAC 
- -t 13.568512000 -s 0 -d -1 -p BCN -e 12 -c 2 -a 0 -i 0 -k MAC
h -t 13.568512000 -s 0 -d -1 -p BCN -e 12 -c 2 -a 0 -i 0 -k MAC -R 15.00 -D 0.00
r -t 13.569088050 -s 1 -d -1 -p BCN -e 12 -c 2 -a 0 -i 0 -k MAC
+ -t 13.691392000 -s 0 -d -1 -p BCN -e 12 -c 2 -a 0 -i 0 -k MAC 
- -t 13.691392000 -s 0 -d -1 -p BCN -e 12 -c 2 -a 0 -i 0 -k MAC
h -t 13.691392000 -s 0 -d -1 -p BCN -e 12 -c 2 -a 0 -i 0 -k MAC -R 15.00 -D 0.00
r -t 13.691968050 -s 1 -d -1 -p BCN -e 12 -c 2 -a 0 -i 0 -k MAC
+ -t 13.814272000 -s 0 -d -1 -p BCN -e 12 -c 2 -a 0 -i 0 -k MAC 
- -t 13.814272000 -s 0 -d -1 -p BCN -e 12 -c 2 -a 0 -i 0 -k MAC