s 0.000640000 _3_ MAC  --- 0 CM7 8 [0 ffffffff 3 0] 
s 0.000640000 _5_ MAC  --- 0 CM7 8 [0 ffffffff 5 0] 
s 0.000960000 _7_ MAC  --- 0 CM7 8 [0 ffffffff 7 0] 
r 0.001088083 _0_ MAC  --- 0 CM7 8 [0 ffffffff 3 0] 
D 0.001088083 _4_ MAC  LQI 0 CM7 8 [0 ffffffff 3 0] 
r 0.001088083 _6_ MAC  --- 0 CM7 8 [0 ffffffff 5 0] 
r 0.001408083 _2_ MAC  --- 0 CM7 8 [0 ffffffff 7 0] 
s 0.002240000 _1_ MAC  --- 0 CM7 8 [0 ffffffff 1 0] 
r 0.002688083 _2_ MAC  --- 0 CM7 8 [0 ffffffff 1 0] 
r 0.002688083 _0_ MAC  --- 0 CM7 8 [0 ffffffff 1 0] 
s 0.141440000 _5_ MAC  --- 0 CM7 8 [0 ffffffff 5 0] 
s 0.141760000 _1_ MAC  --- 0 CM7 8 [0 ffffffff 1 0] 
s 0.141760000 _3_ MAC  --- 0 CM7 8 [0 ffffffff 3 0] 
s 0.142400000 _7_ MAC  --- 0 CM7 8 [0 ffffffff 7 0] 
s 0.281600000 _1_ MAC  --- 0 CM7 8 [0 ffffffff 1 0] 
s 0.282240000 _5_ MAC  --- 0 CM7 8 [0 ffffffff 5 0] 
s 0.282240000 _3_ MAC  --- 0 CM7 8 [0 ffffffff 3 0] 
s 0.282560000 _7_ MAC  --- 0 CM7 8 [0 ffffffff 7 0] 
s 0.420672000 _1_ MAC  --- 0 BCN 12 [0 ffffffff 1 0] 
s 0.421312000 _5_ MAC  --- 0 BCN 12 [0 ffffffff 5 0] 
s 0.421312000 _3_ MAC  --- 0 BCN 12 [0 ffffffff 3 0] 
s 0.421632000 _7_ MAC  --- 0 BCN 12 [0 ffffffff 7 0] 
D 0.421888083 _4_ MAC  LQI 0 BCN 12 [0 ffffffff 5 0] 
s 0.501280000 _0_ MAC  --- 0 CM7 8 [0 ffffffff 0 0] 
r 0.501728083 _1_ MAC  --- 0 CM7 8 [0 ffffffff 0 0] 
r 0.501728083 _3_ MAC  --- 0 CM7 8 [0 ffffffff 0 0] 
s 0.543552000 _1_ MAC  --- 0 BCN 12 [0 ffffffff 1 0] 
s 0.544192000 _5_ MAC  --- 0 BCN 12 [0 ffffffff 5 0] 
s 0.544192000 _3_ MAC  --- 0 BCN 12 [0 ffffffff 3 0] 
s 0.544512000 _7_ MAC  --- 0 BCN 12 [0 ffffffff 7 0] 
D 0.544768083 _4_ MAC  LQI 0 BCN 12 [0 ffffffff 5 0] 
s 0.666432000 _1_ MAC  --- 0 BCN 12 [0 ffffffff 1 0] 
s 0.667072000 _5_ MAC  --- 0 BCN 12 [0 ffffffff 5 0] 
s 0.667072000 _3_ MAC  --- 0 BCN 12 [0 ffffffff 3 0] 
s 0.667392000 _7_ MAC  --- 0 BCN 12 [0 ffffffff 7 0] 
D 0.667648083 _4_ MAC  LQI 0 BCN 12 [0 ffffffff 5 0] 
s 0.764320000 _0_ MAC  --- 0 CM7 8 [0 ffffffff 0 0] 
s 0.789312000 _1_ MAC  --- 0 BCN 12 [0 ffffffff 1 0] 
s 0.789952000 _5_ MAC  --- 0 BCN 12 [0 ffffffff 5 0] 
s 0.789952000 _3_ MAC  --- 0 BCN 12 [0 ffffffff 3 0] 
s 0.790272000 _7_ MAC  --- 0 BCN 12 [0 ffffffff 7 0] 
D 0.790528083 _4_ MAC  LQI 0 BCN 12 [0 ffffffff 5 0] 
s 0.912192000 _1_ MAC  --- 0 BCN 12 [0 ffffffff 1 0] 
s 0.912832000 _5_ MAC  --- 0 BCN 12 [0 ffffffff 5 0] 
s 0.912832000 _3_ MAC  --- 0 BCN 12 [0 ffffffff 3 0] 
s 0.913152000 _7_ MAC  --- 0 BCN 12 [0 ffffffff 7 0] 
D 0.913408083 _4_ MAC  LQI 0 BCN 12 [0 ffffffff 5 0] 
s 1.028000000 _0_ MAC  --- 0 CM7 8 [0 ffffffff 0 0] 
s 1.035072000 _1_ MAC  --- 0 BCN 12 [0 ffffffff 1 0] 
s 1.035712000 _5_ MAC  --- 0 BCN 12 [0 ffffffff 5 0] 
s 1.035712000 _3_ MAC  --- 0 BCN 12 [0 ffffffff 3 0] 
s 1.036032000 _7_ MAC  --- 0 BCN 12 [0 ffffffff 7 0] 
D 1.036288083 _4_ MAC  LQI 0 BCN 12 [0 ffffffff 5 0] 
s 1.157952000 _1_ MAC  --- 0 BCN 12 [0 ffffffff 1 0] 
s 1.158592000 _5_ MAC  --- 0 BCN 12 [0 ffffffff 5 0] 
s 1.158592000 _3_ MAC  --- 0 BCN 12 [0 ffffffff 3 0] 
s 1.158912000 _7_ MAC  --- 0 BCN 12 [0 ffffffff 7 0] 
D 1.159168083 _4_ MAC  LQI 0 BCN 12 [0 ffffffff 5 0] 
s 1.280832000 _1_ MAC  --- 0 BCN 12 [0 ffffffff 1 0] 
s 1.281472000 _5_ MAC  --- 0 BCN 12 [0 ffffffff 5 0] 
s 1.281472000 _3_ MAC  --- 0 BCN 12 [0 ffffffff 3 0] 
s 1.281792000 _7_ MAC  --- 0 BCN 12 [0 ffffffff 7 0] 
D 1.282048083 _4_ MAC  LQI 0 BCN 12 [0 ffffffff 5 0] 
s 1.291680000 _0_ MAC  --- 0 CM1 17 [0 1 0 0] 
r 1.292416083 _1_ MAC  --- 0 CM1 17 [0 1 0 0] 
s 1.292672000 _1_ MAC  --- 0 ACK 5 [0 0 1 0] 
r 1.293024083 _0_ MAC  --- 0 ACK 5 [0 0 1 0] 
s 1.403712000 _1_ MAC  --- 0 BCN 20 [0 ffffffff 1 0] 
s 1.404352000 _5_ MAC  --- 0 BCN 12 [0 ffffffff 5 0] 
s 1.404352000 _3_ MAC  --- 0 BCN 12 [0 ffffffff 3 0] 
s 1.404672000 _7_ MAC  --- 0 BCN 12 [0 ffffffff 7 0] 
D 1.404928083 _4_ MAC  LQI 0 BCN 12 [0 ffffffff 5 0] 
s 1.501280000 _2_ MAC  --- 0 CM7 8 [0 ffffffff 2 0] 
r 1.501728083 _7_ MAC  --- 0 CM7 8 [0 ffffffff 2 0] 
r 1.501728083 _1_ MAC  --- 0 CM7 8 [0 ffffffff 2 0] 
s 1.526592000 _1_ MAC  --- 0 BCN 20 [0 ffffffff 1 0] 
s 1.527232000 _5_ MAC  --- 0 BCN 12 [0 ffffffff 5 0] 
s 1.527232000 _3_ MAC  --- 0 BCN 12 [0 ffffffff 3 0] 
s 1.527552000 _7_ MAC  --- 0 BCN 12 [0 ffffffff 7 0] 
D 1.527808083 _4_ MAC  LQI 0 BCN 12 [0 ffffffff 5 0] 
s 1.649472000 _1_ MAC  --- 0 BCN 20 [0 ffffffff 1 0] 
s 1.650112000 _5_ MAC  --- 0 BCN 12 [0 ffffffff 5 0] 
s 1.650112000 _3_ MAC  --- 0 BCN 12 [0 ffffffff 3 0] 
s 1.650432000 _7_ MAC  --- 0 BCN 12 [0 ffffffff 7 0] 
D 1.650688083 _4_ MAC  LQI 0 BCN 12 [0 ffffffff 5 0] 
s 1.764640000 _2_ MAC  --- 0 CM7 8 [0 ffffffff 2 0] 
s 1.772352000 _1_ MAC  --- 0 BCN 20 [0 ffffffff 1 0] 
s 1.772992000 _5_ MAC  --- 0 BCN 12 [0 ffffffff 5 0] 
s 1.772992000 _3_ MAC  --- 0 BCN 12 [0 ffffffff 3 0] 
s 1.773312000 _7_ MAC  --- 0 BCN 12 [0 ffffffff 7 0] 
D 1.773568083 _4_ MAC  LQI 0 BCN 12 [0 ffffffff 5 0] 
s 1.784544083 _0_ MAC  --- 0 CM4 16 [0 1 0 0] 
r 1.785248167 _1_ MAC  --- 0 CM4 16 [0 1 0 0] 
s 1.785472000 _1_ MAC  --- 0 ACK 5 [0 0 1 0] 
r 1.785824083 _0_ MAC  --- 0 ACK 5 [0 0 1 0] 
s 1.786112000 _1_ MAC  --- 0 CM2 25 [0 0 1 0] 
r 1.787104083 _0_ MAC  --- 0 CM2 25 [0 0 1 0] 
s 1.787296083 _0_ MAC  --- 0 ACK 5 [0 1 0 0] 
r 1.787648167 _1_ MAC  --- 0 ACK 5 [0 1 0 0] 
s 1.895232000 _1_ MAC  --- 0 BCN 12 [0 ffffffff 1 0] 
r 1.895808083 _0_ MAC  --- 0 BCN 12 [0 ffffffff 1 0] 
s 1.895872000 _5_ MAC  --- 0 BCN 12 [0 ffffffff 5 0] 
s 1.895872000 _3_ MAC  --- 0 BCN 12 [0 ffffffff 3 0] 
s 1.896192000 _7_ MAC  --- 0 BCN 12 [0 ffffffff 7 0] 
D 1.896448083 _4_ MAC  LQI 0 BCN 12 [0 ffffffff 5 0] 
D 1.896448083 _0_ MAC  PAN 0 BCN 12 [0 ffffffff 3 0] 
s 2.018112000 _1_ MAC  --- 0 BCN 12 [0 ffffffff 1 0] 
r 2.018688083 _0_ MAC  --- 0 BCN 12 [0 ffffffff 1 0] 
s 2.018752000 _5_ MAC  --- 0 BCN 12 [0 ffffffff 5 0] 
s 2.018752000 _3_ MAC  --- 0 BCN 12 [0 ffffffff 3 0] 
s 2.019072000 _7_ MAC  --- 0 BCN 12 [0 ffffffff 7 0] 
D 2.019328083 _4_ MAC  LQI 0 BCN 12 [0 ffffffff 5 0] 
D 2.019328083 _0_ MAC  PAN 0 BCN 12 [0 ffffffff 3 0] 
s 2.027040000 _2_ MAC  --- 0 CM7 8 [0 ffffffff 2 0] 
s 2.140992000 _1_ MAC  --- 0 BCN 12 [0 ffffffff 1 0] 
r 2.141568083 _0_ MAC  --- 0 BCN 12 [0 ffffffff 1 0] 
s 2.141632000 _5_ MAC  --- 0 BCN 12 [0 ffffffff 5 0] 
s 2.141632000 _3_ MAC  --- 0 BCN 12 [0 ffffffff 3 0] 
s 2.141952000 _7_ MAC  --- 0 BCN 12 [0 ffffffff 7 0] 
D 2.142208083 _4_ MAC  LQI 0 BCN 12 [0 ffffffff 5 0] 
D 2.142208083 _0_ MAC  PAN 0 BCN 12 [0 ffffffff 3 0] 
s 2.263872000 _1_ MAC  --- 0 BCN 12 [0 ffffffff 1 0] 
r 2.264448083 _0_ MAC  --- 0 BCN 12 [0 ffffffff 1 0] 
s 2.264512000 _5_ MAC  --- 0 BCN 12 [0 ffffffff 5 0] 
s 2.264512000 _3_ MAC  --- 0 BCN 12 [0 ffffffff 3 0] 
s 2.264832000 _7_ MAC  --- 0 BCN 12 [0 ffffffff 7 0] 
D 2.265088083 _4_ MAC  LQI 0 BCN 12 [0 ffffffff 5 0] 
D 2.265088083 _0_ MAC  PAN 0 BCN 12 [0 ffffffff 3 0] 
s 2.289120000 _2_ MAC  --- 0 CM1 17 [0 1 2 0] 
r 2.289856083 _1_ MAC  --- 0 CM1 17 [0 1 2 0] 
s 2.290112000 _1_ MAC  --- 0 ACK 5 [0 2 1 0] 
r 2.290464083 _2_ MAC  --- 0 ACK 5 [0 2 1 0] 
s 2.386752000 _1_ MAC  --- 0 BCN 20 [0 ffffffff 1 0] 
s 2.387392000 _5_ MAC  --- 0 BCN 12 [0 ffffffff 5 0] 
s 2.387392000 _3_ MAC  --- 0 BCN 12 [0 ffffffff 3 0] 
D 2.387584083 _0_ MAC  LQI 0 BCN 20 [0 ffffffff 1 0] 
s 2.387712000 _7_ MAC  --- 0 BCN 12 [0 ffffffff 7 0] 
D 2.387968083 _4_ MAC  LQI 0 BCN 12 [0 ffffffff 5 0] 
s 2.502560000 _4_ MAC  --- 0 CM7 8 [0 ffffffff 4 0] 
r 2.503008083 _3_ MAC  --- 0 CM7 8 [0 ffffffff 4 0] 
r 2.503008083 _5_ MAC  --- 0 CM7 8 [0 ffffffff 4 0] 
s 2.509632000 _1_ MAC  --- 0 BCN 20 [0 ffffffff 1 0] 
s 2.510272000 _5_ MAC  --- 0 BCN 12 [0 ffffffff 5 0] 
s 2.510272000 _3_ MAC  --- 0 BCN 12 [0 ffffffff 3 0] 
D 2.510464083 _0_ MAC  LQI 0 BCN 20 [0 ffffffff 1 0] 
s 2.510592000 _7_ MAC  --- 0 BCN 12 [0 ffffffff 7 0] 
D 2.510848083 _4_ MAC  LQI 0 BCN 12 [0 ffffffff 5 0] 
s 2.632512000 _1_ MAC  --- 0 BCN 20 [0 ffffffff 1 0] 
s 2.633152000 _5_ MAC  --- 0 BCN 12 [0 ffffffff 5 0] 
s 2.633152000 _3_ MAC  --- 0 BCN 12 [0 ffffffff 3 0] 
D 2.633344083 _0_ MAC  LQI 0 BCN 20 [0 ffffffff 1 0] 
s 2.633472000 _7_ MAC  --- 0 BCN 12 [0 ffffffff 7 0] 
D 2.633728083 _4_ MAC  LQI 0 BCN 12 [0 ffffffff 5 0] 
s 2.755392000 _1_ MAC  --- 0 BCN 20 [0 ffffffff 1 0] 
s 2.756032000 _5_ MAC  --- 0 BCN 12 [0 ffffffff 5 0] 
s 2.756032000 _3_ MAC  --- 0 BCN 12 [0 ffffffff 3 0] 
D 2.756224083 _0_ MAC  LQI 0 BCN 20 [0 ffffffff 1 0] 
s 2.756352000 _7_ MAC  --- 0 BCN 12 [0 ffffffff 7 0] 
D 2.756608083 _4_ MAC  LQI 0 BCN 12 [0 ffffffff 5 0] 
s 2.764960000 _4_ MAC  --- 0 CM7 8 [0 ffffffff 4 0] 
s 2.781984083 _2_ MAC  --- 0 CM4 16 [0 1 2 0] 
r 2.782688167 _1_ MAC  --- 0 CM4 16 [0 1 2 0] 
s 2.782912000 _1_ MAC  --- 0 ACK 5 [0 2 1 0] 
r 2.783264083 _2_ MAC  --- 0 ACK 5 [0 2 1 0] 
s 2.783552000 _1_ MAC  --- 0 CM2 25 [0 2 1 0] 
r 2.784544083 _2_ MAC  --- 0 CM2 25 [0 2 1 0] 
s 2.784736083 _2_ MAC  --- 0 ACK 5 [0 1 2 0] 
r 2.785088167 _1_ MAC  --- 0 ACK 5 [0 1 2 0] 
s 2.878272000 _1_ MAC  --- 0 BCN 12 [0 ffffffff 1 0] 
r 2.878848083 _2_ MAC  --- 0 BCN 12 [0 ffffffff 1 0] 
r 2.878848083 _0_ MAC  --- 0 BCN 12 [0 ffffffff 1 0] 
s 2.878912000 _5_ MAC  --- 0 BCN 12 [0 ffffffff 5 0] 
s 2.878912000 _3_ MAC  --- 0 BCN 12 [0 ffffffff 3 0] 
s 2.879232000 _7_ MAC  --- 0 BCN 12 [0 ffffffff 7 0] 
D 2.879488083 _0_ MAC  PAN 0 BCN 12 [0 ffffffff 3 0] 
D 2.879808083 _2_ MAC  PAN 0 BCN 12 [0 ffffffff 7 0] 
s 3.001152000 _1_ MAC  --- 0 BCN 12 [0 ffffffff 1 0] 
r 3.001728083 _2_ MAC  --- 0 BCN 12 [0 ffffffff 1 0] 
r 3.001728083 _0_ MAC  --- 0 BCN 12 [0 ffffffff 1 0] 
s 3.001792000 _5_ MAC  --- 0 BCN 12 [0 ffffffff 5 0] 
s 3.001792000 _3_ MAC  --- 0 BCN 12 [0 ffffffff 3 0] 
s 3.002112000 _7_ MAC  --- 0 BCN 12 [0 ffffffff 7 0] 
D 3.002368083 _0_ MAC  PAN 0 BCN 12 [0 ffffffff 3 0] 
D 3.002688083 _2_ MAC  PAN 0 BCN 12 [0 ffffffff 7 0] 
s 3.029280000 _4_ MAC  --- 0 CM7 8 [0 ffffffff 4 0] 
s 3.124032000 _1_ MAC  --- 0 BCN 12 [0 ffffffff 1 0] 
r 3.124608083 _2_ MAC  --- 0 BCN 12 [0 ffffffff 1 0] 
r 3.124608083 _0_ MAC  --- 0 BCN 12 [0 ffffffff 1 0] 
s 3.124672000 _5_ MAC  --- 0 BCN 12 [0 ffffffff 5 0] 
s 3.124672000 _3_ MAC  --- 0 BCN 12 [0 ffffffff 3 0] 
s 3.124992000 _7_ MAC  --- 0 BCN 12 [0 ffffffff 7 0] 
D 3.125248083 _0_ MAC  PAN 0 BCN 12 [0 ffffffff 3 0] 
D 3.125568083 _2_ MAC  PAN 0 BCN 12 [0 ffffffff 7 0] 
s 3.246912000 _1_ MAC  --- 0 BCN 12 [0 ffffffff 1 0] 
r 3.247488083 _2_ MAC  --- 0 BCN 12 [0 ffffffff 1 0] 
r 3.247488083 _0_ MAC  --- 0 BCN 12 [0 ffffffff 1 0] 
s 3.247552000 _5_ MAC  --- 0 BCN 12 [0 ffffffff 5 0] 
s 3.247552000 _3_ MAC  --- 0 BCN 12 [0 ffffffff 3 0] 
s 3.247872000 _7_ MAC  --- 0 BCN 12 [0 ffffffff 7 0] 
D 3.248128083 _0_ MAC  PAN 0 BCN 12 [0 ffffffff 3 0] 
D 3.248448083 _2_ MAC  PAN 0 BCN 12 [0 ffffffff 7 0] 
s 3.369792000 _1_ MAC  --- 0 BCN 12 [0 ffffffff 1 0] 
r 3.370368083 _2_ MAC  --- 0 BCN 12 [0 ffffffff 1 0] 
r 3.370368083 _0_ MAC  --- 0 BCN 12 [0 ffffffff 1 0] 
s 3.370432000 _5_ MAC  --- 0 BCN 12 [0 ffffffff 5 0] 
s 3.370432000 _3_ MAC  --- 0 BCN 12 [0 ffffffff 3 0] 
s 3.370752000 _7_ MAC  --- 0 BCN 12 [0 ffffffff 7 0] 
D 3.371008083 _0_ MAC  PAN 0 BCN 12 [0 ffffffff 3 0] 
D 3.371328083 _2_ MAC  PAN 0 BCN 12 [0 ffffffff 7 0] 
s 3.492672000 _1_ MAC  --- 0 BCN 12 [0 ffffffff 1 0] 
r 3.493248083 _2_ MAC  --- 0 BCN 12 [0 ffffffff 1 0] 
r 3.493248083 _0_ MAC  --- 0 BCN 12 [0 ffffffff 1 0] 
s 3.493312000 _5_ MAC  --- 0 BCN 12 [0 ffffffff 5 0] 
s 3.493312000 _3_ MAC  --- 0 BCN 12 [0 ffffffff 3 0] 
s 3.493632000 _7_ MAC  --- 0 BCN 12 [0 ffffffff 7 0] 
D 3.493888083 _0_ MAC  PAN 0 BCN 12 [0 ffffffff 3 0] 
D 3.494208083 _2_ MAC  PAN 0 BCN 12 [0 ffffffff 7 0] 
s 3.500960000 _6_ MAC  --- 0 CM7 8 [0 ffffffff 6 0] 
r 3.501408083 _5_ MAC  --- 0 CM7 8 [0 ffffffff 6 0] 
s 3.615552000 _1_ MAC  --- 0 BCN 12 [0 ffffffff 1 0] 
r 3.616128083 _2_ MAC  --- 0 BCN 12 [0 ffffffff 1 0] 
r 3.616128083 _0_ MAC  --- 0 BCN 12 [0 ffffffff 1 0] 
s 3.616192000 _5_ MAC  --- 0 BCN 12 [0 ffffffff 5 0] 
s 3.616192000 _3_ MAC  --- 0 BCN 12 [0 ffffffff 3 0] 
s 3.616512000 _7_ MAC  --- 0 BCN 12 [0 ffffffff 7 0] 
D 3.616768083 _0_ MAC  PAN 0 BCN 12 [0 ffffffff 3 0] 
D 3.617088083 _2_ MAC  PAN 0 BCN 12 [0 ffffffff 7 0] 
s 3.738432000 _1_ MAC  --- 0 BCN 12 [0 ffffffff 1 0] 
r 3.739008083 _2_ MAC  --- 0 BCN 12 [0 ffffffff 1 0] 
r 3.739008083 _0_ MAC  --- 0 BCN 12 [0 ffffffff 1 0] 
s 3.739072000 _5_ MAC  --- 0 BCN 12 [0 ffffffff 5 0] 
s 3.739072000 _3_ MAC  --- 0 BCN 12 [0 ffffffff 3 0] 
s 3.739392000 _7_ MAC  --- 0 BCN 12 [0 ffffffff 7 0] 
D 3.739648083 _0_ MAC  PAN 0 BCN 12 [0 ffffffff 3 0] 
D 3.739968083 _2_ MAC  PAN 0 BCN 12 [0 ffffffff 7 0] 
s 3.765280000 _6_ MAC  --- 0 CM7 8 [0 ffffffff 6 0] 
s 3.861312000 _1_ MAC  --- 0 BCN 12 [0 ffffffff 1 0] 
r 3.861888083 _2_ MAC  --- 0 BCN 12 [0 ffffffff 1 0] 
r 3.861888083 _0_ MAC  --- 0 BCN 12 [0 ffffffff 1 0] 
s 3.861952000 _5_ MAC  --- 0 BCN 12 [0 ffffffff 5 0] 
s 3.861952000 _3_ MAC  --- 0 BCN 12 [0 ffffffff 3 0] 
s 3.862272000 _7_ MAC  --- 0 BCN 12 [0 ffffffff 7 0] 
D 3.862528083 _0_ MAC  PAN 0 BCN 12 [0 ffffffff 3 0] 
D 3.862848083 _2_ MAC  PAN 0 BCN 12 [0 ffffffff 7 0] 
s 3.984192000 _1_ MAC  --- 0 BCN 12 [0 ffffffff 1 0] 
r 3.984768083 _2_ MAC  --- 0 BCN 12 [0 ffffffff 1 0] 
r 3.984768083 _0_ MAC  --- 0 BCN 12 [0 ffffffff 1 0] 
s 3.984832000 _5_ MAC  --- 0 BCN 12 [0 ffffffff 5 0] 
s 3.984832000 _3_ MAC  --- 0 BCN 12 [0 ffffffff 3 0] 
s 3.985152000 _7_ MAC  --- 0 BCN 12 [0 ffffffff 7 0] 
D 3.985408083 _0_ MAC  PAN 0 BCN 12 [0 ffffffff 3 0] 
D 3.985728083 _2_ MAC  PAN 0 BCN 12 [0 ffffffff 7 0] 
s 4.027680000 _6_ MAC  --- 0 CM7 8 [0 ffffffff 6 0] 
s 4.107072000 _1_ MAC  --- 0 BCN 12 [0 ffffffff 1 0] 
r 4.107648083 _2_ MAC  --- 0 BCN 12 [0 ffffffff 1 0] 
r 4.107648083 _0_ MAC  --- 0 BCN 12 [0 ffffffff 1 0] 
s 4.107712000 _5_ MAC  --- 0 BCN 12 [0 ffffffff 5 0] 
s 4.107712000 _3_ MAC  --- 0 BCN 12 [0 ffffffff 3 0] 
s 4.108032000 _7_ MAC  --- 0 BCN 12 [0 ffffffff 7 0] 
D 4.108288083 _0_ MAC  PAN 0 BCN 12 [0 ffffffff 3 0] 
D 4.108608083 _2_ MAC  PAN 0 BCN 12 [0 ffffffff 7 0] 
s 4.229952000 _1_ MAC  --- 0 BCN 12 [0 ffffffff 1 0] 
r 4.230528083 _2_ MAC  --- 0 BCN 12 [0 ffffffff 1 0] 
r 4.230528083 _0_ MAC  --- 0 BCN 12 [0 ffffffff 1 0] 
s 4.230592000 _5_ MAC  --- 0 BCN 12 [0 ffffffff 5 0] 
s 4.230592000 _3_ MAC  --- 0 BCN 12 [0 ffffffff 3 0] 
s 4.230912000 _7_ MAC  --- 0 BCN 12 [0 ffffffff 7 0] 
D 4.231168083 _0_ MAC  PAN 0 BCN 12 [0 ffffffff 3 0] 
D 4.231488083 _2_ MAC  PAN 0 BCN 12 [0 ffffffff 7 0] 
s 4.290080000 _6_ MAC  --- 0 CM1 17 [0 5 6 0] 
r 4.290816083 _5_ MAC  --- 0 CM1 17 [0 5 6 0] 
s 4.291072000 _5_ MAC  --- 0 ACK 5 [0 6 5 0] 
r 4.291424083 _6_ MAC  --- 0 ACK 5 [0 6 5 0] 
s 4.292640000 _4_ MAC  --- 0 CM7 8 [0 ffffffff 4 0] 
r 4.293088083 _3_ MAC  --- 0 CM7 8 [0 ffffffff 4 0] 
r 4.293088083 _5_ MAC  --- 0 CM7 8 [0 ffffffff 4 0] 
s 4.352832000 _1_ MAC  --- 0 BCN 12 [0 ffffffff 1 0] 
r 4.353408083 _2_ MAC  --- 0 BCN 12 [0 ffffffff 1 0] 
r 4.353408083 _0_ MAC  --- 0 BCN 12 [0 ffffffff 1 0] 
s 4.353472000 _5_ MAC  --- 0 BCN 20 [0 ffffffff 5 0] 
s 4.353472000 _3_ MAC  --- 0 BCN 12 [0 ffffffff 3 0] 
s 4.353792000 _7_ MAC  --- 0 BCN 12 [0 ffffffff 7 0] 
D 4.354048083 _0_ MAC  PAN 0 BCN 12 [0 ffffffff 3 0] 
D 4.354304083 _4_ MAC  LQI 0 BCN 20 [0 ffffffff 5 0] 
D 4.354368083 _2_ MAC  PAN 0 BCN 12 [0 ffffffff 7 0] 
s 4.475712000 _1_ MAC  --- 0 BCN 12 [0 ffffffff 1 0] 
r 4.476288083 _2_ MAC  --- 0 BCN 12 [0 ffffffff 1 0] 
r 4.476288083 _0_ MAC  --- 0 BCN 12 [0 ffffffff 1 0] 
s 4.476352000 _5_ MAC  --- 0 BCN 20 [0 ffffffff 5 0] 
s 4.476352000 _3_ MAC  --- 0 BCN 12 [0 ffffffff 3 0] 
s 4.476672000 _7_ MAC  --- 0 BCN 12 [0 ffffffff 7 0] 
D 4.476928083 _0_ MAC  PAN 0 BCN 12 [0 ffffffff 3 0] 
D 4.477184083 _4_ MAC  LQI 0 BCN 20 [0 ffffffff 5 0] 
D 4.477248083 _2_ MAC  PAN 0 BCN 12 [0 ffffffff 7 0] 
s 4.554720000 _4_ MAC  --- 0 CM7 8 [0 ffffffff 4 0] 
s 4.598592000 _1_ MAC  --- 0 BCN 12 [0 ffffffff 1 0] 
r 4.599168083 _2_ MAC  --- 0 BCN 12 [0 ffffffff 1 0] 
r 4.599168083 _0_ MAC  --- 0 BCN 12 [0 ffffffff 1 0] 
s 4.599232000 _5_ MAC  --- 0 BCN 20 [0 ffffffff 5 0] 
s 4.599232000 _3_ MAC  --- 0 BCN 12 [0 ffffffff 3 0] 
s 4.599552000 _7_ MAC  --- 0 BCN 12 [0 ffffffff 7 0] 
D 4.599808083 _0_ MAC  PAN 0 BCN 12 [0 ffffffff 3 0] 
D 4.600128083 _2_ MAC  PAN 0 BCN 12 [0 ffffffff 7 0] 
s 4.721472000 _1_ MAC  --- 0 BCN 12 [0 ffffffff 1 0] 
r 4.722048083 _2_ MAC  --- 0 BCN 12 [0 ffffffff 1 0] 
r 4.722048083 _0_ MAC  --- 0 BCN 12 [0 ffffffff 1 0] 
s 4.722112000 _5_ MAC  --- 0 BCN 20 [0 ffffffff 5 0] 
s 4.722112000 _3_ MAC  --- 0 BCN 12 [0 ffffffff 3 0] 
s 4.722432000 _7_ MAC  --- 0 BCN 12 [0 ffffffff 7 0] 
D 4.722688083 _0_ MAC  PAN 0 BCN 12 [0 ffffffff 3 0] 
D 4.723008083 _2_ MAC  PAN 0 BCN 12 [0 ffffffff 7 0] 
s 4.782944083 _6_ MAC  --- 0 CM4 16 [0 5 6 0] 
r 4.783648167 _5_ MAC  --- 0 CM4 16 [0 5 6 0] 
s 4.783872000 _5_ MAC  --- 0 ACK 5 [0 6 5 0] 
r 4.784224083 _6_ MAC  --- 0 ACK 5 [0 6 5 0] 
s 4.784512000 _5_ MAC  --- 0 CM2 25 [0 6 5 0] 
r 4.785504083 _6_ MAC  --- 0 CM2 25 [0 6 5 0] 
s 4.785696083 _6_ MAC  --- 0 ACK 5 [0 5 6 0] 
r 4.786048167 _5_ MAC  --- 0 ACK 5 [0 5 6 0] 
s 4.818400000 _4_ MAC  --- 0 CM7 8 [0 ffffffff 4 0] 
s 4.844352000 _1_ MAC  --- 0 BCN 12 [0 ffffffff 1 0] 
r 4.844928083 _2_ MAC  --- 0 BCN 12 [0 ffffffff 1 0] 
r 4.844928083 _0_ MAC  --- 0 BCN 12 [0 ffffffff 1 0] 
s 4.844992000 _5_ MAC  --- 0 BCN 12 [0 ffffffff 5 0] 
s 4.844992000 _3_ MAC  --- 0 BCN 12 [0 ffffffff 3 0] 
s 4.845312000 _7_ MAC  --- 0 BCN 12 [0 ffffffff 7 0] 
r 4.845568083 _6_ MAC  --- 0 BCN 12 [0 ffffffff 5 0] 
D 4.845568083 _0_ MAC  PAN 0 BCN 12 [0 ffffffff 3 0] 
D 4.845888083 _2_ MAC  PAN 0 BCN 12 [0 ffffffff 7 0] 
s 4.967232000 _1_ MAC  --- 0 BCN 12 [0 ffffffff 1 0] 
r 4.967808083 _2_ MAC  --- 0 BCN 12 [0 ffffffff 1 0] 
r 4.967808083 _0_ MAC  --- 0 BCN 12 [0 ffffffff 1 0] 
s 4.967872000 _5_ MAC  --- 0 BCN 12 [0 ffffffff 5 0] 
s 4.967872000 _3_ MAC  --- 0 BCN 12 [0 ffffffff 3 0] 
s 4.968192000 _7_ MAC  --- 0 BCN 12 [0 ffffffff 7 0] 
r 4.968448083 _6_ MAC  --- 0 BCN 12 [0 ffffffff 5 0] 
D 4.968448083 _0_ MAC  PAN 0 BCN 12 [0 ffffffff 3 0] 
D 4.968768083 _2_ MAC  PAN 0 BCN 12 [0 ffffffff 7 0] 
s 5.090112000 _1_ MAC  --- 0 BCN 12 [0 ffffffff 1 0] 
r 5.090688083 _2_ MAC  --- 0 BCN 12 [0 ffffffff 1 0] 
r 5.090688083 _0_ MAC  --- 0 BCN 12 [0 ffffffff 1 0] 
s 5.090752000 _5_ MAC  --- 0 BCN 12 [0 ffffffff 5 0] 
s 5.090752000 _3_ MAC  --- 0 BCN 12 [0 ffffffff 3 0] 
s 5.091072000 _7_ MAC  --- 0 BCN 12 [0 ffffffff 7 0] 
r 5.091328083 _6_ MAC  --- 0 BCN 12 [0 ffffffff 5 0] 
D 5.091328083 _0_ MAC  PAN 0 BCN 12 [0 ffffffff 3 0] 
D 5.091648083 _2_ MAC  PAN 0 BCN 12 [0 ffffffff 7 0] 
s 5.212992000 _1_ MAC  --- 0 BCN 12 [0 ffffffff 1 0] 
r 5.213568083 _2_ MAC  --- 0 BCN 12 [0 ffffffff 1 0] 
r 5.213568083 _0_ MAC  --- 0 BCN 12 [0 ffffffff 1 0] 
s 5.213632000 _5_ MAC  --- 0 BCN 12 [0 ffffffff 5 0] 
s 5.213632000 _3_ MAC  --- 0 BCN 12 [0 ffffffff 3 0] 
s 5.213952000 _7_ MAC  --- 0 BCN 12 [0 ffffffff 7 0] 
r 5.214208083 _6_ MAC  --- 0 BCN 12 [0 ffffffff 5 0] 
D 5.214208083 _0_ MAC  PAN 0 BCN 12 [0 ffffffff 3 0] 
D 5.214528083 _2_ MAC  PAN 0 BCN 12 [0 ffffffff 7 0] 
s 5.335872000 _1_ MAC  --- 0 BCN 12 [0 ffffffff 1 0] 
r 5.336448083 _2_ MAC  --- 0 BCN 12 [0 ffffffff 1 0] 
r 5.336448083 _0_ MAC  --- 0 BCN 12 [0 ffffffff 1 0] 
s 5.336512000 _5_ MAC  --- 0 BCN 12 [0 ffffffff 5 0] 
s 5.336512000 _3_ MAC  --- 0 BCN 12 [0 ffffffff 3 0] 
s 5.336832000 _7_ MAC  --- 0 BCN 12 [0 ffffffff 7 0] 
r 5.337088083 _6_ MAC  --- 0 BCN 12 [0 ffffffff 5 0] 
D 5.337088083 _0_ MAC  PAN 0 BCN 12 [0 ffffffff 3 0] 
D 5.337408083 _2_ MAC  PAN 0 BCN 12 [0 ffffffff 7 0] 
s 5.458752000 _1_ MAC  --- 0 BCN 12 [0 ffffffff 1 0] 
r 5.459328083 _2_ MAC  --- 0 BCN 12 [0 ffffffff 1 0] 
r 5.459328083 _0_ MAC  --- 0 BCN 12 [0 ffffffff 1 0] 
s 5.459392000 _5_ MAC  --- 0 BCN 12 [0 ffffffff 5 0] 
s 5.459392000 _3_ MAC  --- 0 BCN 12 [0 ffffffff 3 0] 
s 5.459712000 _7_ MAC  --- 0 BCN 12 [0 ffffffff 7 0] 
r 5.459968083 _6_ MAC  --- 0 BCN 12 [0 ffffffff 5 0] 
D 5.459968083 _0_ MAC  PAN 0 BCN 12 [0 ffffffff 3 0] 
D 5.460288083 _2_ MAC  PAN 0 BCN 12 [0 ffffffff 7 0] 
s 5.581632000 _1_ MAC  --- 0 BCN 12 [0 ffffffff 1 0] 
r 5.582208083 _2_ MAC  --- 0 BCN 12 [0 ffffffff 1 0] 
r 5.582208083 _0_ MAC  --- 0 BCN 12 [0 ffffffff 1 0] 
s 5.582272000 _5_ MAC  --- 0 BCN 12 [0 ffffffff 5 0] 
s 5.582272000 _3_ MAC  --- 0 BCN 12 [0 ffffffff 3 0] 
s 5.582592000 _7_ MAC  --- 0 BCN 12 [0 ffffffff 7 0] 
r 5.582848083 _6_ MAC  --- 0 BCN 12 [0 ffffffff 5 0] 
D 5.582848083 _0_ MAC  PAN 0 BCN 12 [0 ffffffff 3 0] 
D 5.583168083 _2_ MAC  PAN 0 BCN 12 [0 ffffffff 7 0] 
s 5.704512000 _1_ MAC  --- 0 BCN 12 [0 ffffffff 1 0] 
r 5.705088083 _2_ MAC  --- 0 BCN 12 [0 ffffffff 1 0] 
r 5.705088083 _0_ MAC  --- 0 BCN 12 [0 ffffffff 1 0] 
s 5.705152000 _5_ MAC  --- 0 BCN 12 [0 ffffffff 5 0] 
s 5.705152000 _3_ MAC  --- 0 BCN 12 [0 ffffffff 3 0] 
s 5.705472000 _7_ MAC  --- 0 BCN 12 [0 ffffffff 7 0] 
r 5.705728083 _6_ MAC  --- 0 BCN 12 [0 ffffffff 5 0] 
D 5.705728083 _0_ MAC  PAN 0 BCN 12 [0 ffffffff 3 0] 
D 5.706048083 _2_ MAC  PAN 0 BCN 12 [0 ffffffff 7 0] 
s 5.827392000 _1_ MAC  --- 0 BCN 12 [0 ffffffff 1 0] 
r 5.827968083 _2_ MAC  --- 0 BCN 12 [0 ffffffff 1 0] 
r 5.827968083 _0_ MAC  --- 0 BCN 12 [0 ffffffff 1 0] 
s 5.828032000 _5_ MAC  --- 0 BCN 12 [0 ffffffff 5 0] 
s 5.828032000 _3_ MAC  --- 0 BCN 12 [0 ffffffff 3 0] 
s 5.828352000 _7_ MAC  --- 0 BCN 12 [0 ffffffff 7 0] 
r 5.828608083 _6_ MAC  --- 0 BCN 12 [0 ffffffff 5 0] 
D 5.828608083 _0_ MAC  PAN 0 BCN 12 [0 ffffffff 3 0] 
D 5.828928083 _2_ MAC  PAN 0 BCN 12 [0 ffffffff 7 0] 
s 5.950272000 _1_ MAC  --- 0 BCN 12 [0 ffffffff 1 0] 
r 5.950848083 _2_ MAC  --- 0 BCN 12 [0 ffffffff 1 0] 
r 5.950848083 _0_ MAC  --- 0 BCN 12 [0 ffffffff 1 0] 
s 5.950912000 _5_ MAC  --- 0 BCN 12 [0 ffffffff 5 0] 
s 5.950912000 _3_ MAC  --- 0 BCN 12 [0 ffffffff 3 0] 
s 5.951232000 _7_ MAC  --- 0 BCN 12 [0 ffffffff 7 0] 
r 5.951488083 _6_ MAC  --- 0 BCN 12 [0 ffffffff 5 0] 
D 5.951488083 _0_ MAC  PAN 0 BCN 12 [0 ffffffff 3 0] 
D 5.951808083 _2_ MAC  PAN 0 BCN 12 [0 ffffffff 7 0] 
s 6.073152000 _1_ MAC  --- 0 BCN 12 [0 ffffffff 1 0] 
r 6.073728083 _2_ MAC  --- 0 BCN 12 [0 ffffffff 1 0] 
r 6.073728083 _0_ MAC  --- 0 BCN 12 [0 ffffffff 1 0] 
s 6.073792000 _5_ MAC  --- 0 BCN 12 [0 ffffffff 5 0] 
s 6.073792000 _3_ MAC  --- 0 BCN 12 [0 ffffffff 3 0] 
s 6.074112000 _7_ MAC  --- 0 BCN 12 [0 ffffffff 7 0] 
r 6.074368083 _6_ MAC  --- 0 BCN 12 [0 ffffffff 5 0] 
D 6.074368083 _0_ MAC  PAN 0 BCN 12 [0 ffffffff 3 0] 
D 6.074688083 _2_ MAC  PAN 0 BCN 12 [0 ffffffff 7 0] 
s 6.081760000 _4_ MAC  --- 0 CM7 8 [0 ffffffff 4 0] 
r 6.082208083 _3_ MAC  --- 0 CM7 8 [0 ffffffff 4 0] 
r 6.082208083 _5_ MAC  --- 0 CM7 8 [0 ffffffff 4 0] 
s 6.196032000 _1_ MAC  --- 0 BCN 12 [0 ffffffff 1 0] 
r 6.196608083 _2_ MAC  --- 0 BCN 12 [0 ffffffff 1 0] 
r 6.196608083 _0_ MAC  --- 0 BCN 12 [0 ffffffff 1 0] 
s 6.196672000 _5_ MAC  --- 0 BCN 12 [0 ffffffff 5 0] 
s 6.196672000 _3_ MAC  --- 0 BCN 12 [0 ffffffff 3 0] 
s 6.196992000 _7_ MAC  --- 0 BCN 12 [0 ffffffff 7 0] 
D 6.197248083 _4_ MAC  LQI 0 BCN 12 [0 ffffffff 5 0] 
r 6.197248083 _6_ MAC  --- 0 BCN 12 [0 ffffffff 5 0] 
D 6.197248083 _0_ MAC  PAN 0 BCN 12 [0 ffffffff 3 0] 
D 6.197568083 _2_ MAC  PAN 0 BCN 12 [0 ffffffff 7 0] 
s 6.318912000 _1_ MAC  --- 0 BCN 12 [0 ffffffff 1 0] 
r 6.319488083 _2_ MAC  --- 0 BCN 12 [0 ffffffff 1 0] 
r 6.319488083 _0_ MAC  --- 0 BCN 12 [0 ffffffff 1 0] 
s 6.319552000 _5_ MAC  --- 0 BCN 12 [0 ffffffff 5 0] 
s 6.319552000 _3_ MAC  --- 0 BCN 12 [0 ffffffff 3 0] 
s 6.319872000 _7_ MAC  --- 0 BCN 12 [0 ffffffff 7 0] 
D 6.320128083 _4_ MAC  LQI 0 BCN 12 [0 ffffffff 5 0] 
r 6.320128083 _6_ MAC  --- 0 BCN 12 [0 ffffffff 5 0] 
D 6.320128083 _0_ MAC  PAN 0 BCN 12 [0 ffffffff 3 0] 
D 6.320448083 _2_ MAC  PAN 0 BCN 12 [0 ffffffff 7 0] 
s 6.344160000 _4_ MAC  --- 0 CM7 8 [0 ffffffff 4 0] 
s 6.441792000 _1_ MAC  --- 0 BCN 12 [0 ffffffff 1 0] 
r 6.442368083 _2_ MAC  --- 0 BCN 12 [0 ffffffff 1 0] 
r 6.442368083 _0_ MAC  --- 0 BCN 12 [0 ffffffff 1 0] 
s 6.442432000 _5_ MAC  --- 0 BCN 12 [0 ffffffff 5 0] 
s 6.442432000 _3_ MAC  --- 0 BCN 12 [0 ffffffff 3 0] 
s 6.442752000 _7_ MAC  --- 0 BCN 12 [0 ffffffff 7 0] 
r 6.443008083 _6_ MAC  --- 0 BCN 12 [0 ffffffff 5 0] 
D 6.443008083 _0_ MAC  PAN 0 BCN 12 [0 ffffffff 3 0] 
D 6.443328083 _2_ MAC  PAN 0 BCN 12 [0 ffffffff 7 0] 
s 6.564672000 _1_ MAC  --- 0 BCN 12 [0 ffffffff 1 0] 
r 6.565248083 _2_ MAC  --- 0 BCN 12 [0 ffffffff 1 0] 
r 6.565248083 _0_ MAC  --- 0 BCN 12 [0 ffffffff 1 0] 
s 6.565312000 _5_ MAC  --- 0 BCN 12 [0 ffffffff 5 0] 
s 6.565312000 _3_ MAC  --- 0 BCN 12 [0 ffffffff 3 0] 
s 6.565632000 _7_ MAC  --- 0 BCN 12 [0 ffffffff 7 0] 
r 6.565888083 _6_ MAC  --- 0 BCN 12 [0 ffffffff 5 0] 
D 6.565888083 _0_ MAC  PAN 0 BCN 12 [0 ffffffff 3 0] 
D 6.566208083 _2_ MAC  PAN 0 BCN 12 [0 ffffffff 7 0] 
s 6.606560000 _4_ MAC  --- 0 CM7 8 [0 ffffffff 4 0] 
s 6.687552000 _1_ MAC  --- 0 BCN 12 [0 ffffffff 1 0] 
r 6.688128083 _2_ MAC  --- 0 BCN 12 [0 ffffffff 1 0] 
r 6.688128083 _0_ MAC  --- 0 BCN 12 [0 ffffffff 1 0] 
s 6.688192000 _5_ MAC  --- 0 BCN 12 [0 ffffffff 5 0] 
s 6.688192000 _3_ MAC  --- 0 BCN 12 [0 ffffffff 3 0] 
s 6.688512000 _7_ MAC  --- 0 BCN 12 [0 ffffffff 7 0] 
r 6.688768083 _6_ MAC  --- 0 BCN 12 [0 ffffffff 5 0] 
D 6.688768083 _0_ MAC  PAN 0 BCN 12 [0 ffffffff 3 0] 
D 6.689088083 _2_ MAC  PAN 0 BCN 12 [0 ffffffff 7 0] 
s 6.810432000 _1_ MAC  --- 0 BCN 12 [0 ffffffff 1 0] 
r 6.811008083 _2_ MAC  --- 0 BCN 12 [0 ffffffff 1 0] 
r 6.811008083 _0_ MAC  --- 0 BCN 12 [0 ffffffff 1 0] 
s 6.811072000 _5_ MAC  --- 0 BCN 12 [0 ffffffff 5 0] 
s 6.811072000 _3_ MAC  --- 0 BCN 12 [0 ffffffff 3 0] 
s 6.811392000 _7_ MAC  --- 0 BCN 12 [0 ffffffff 7 0] 
r 6.811648083 _6_ MAC  --- 0 BCN 12 [0 ffffffff 5 0] 
D 6.811648083 _0_ MAC  PAN 0 BCN 12 [0 ffffffff 3 0] 
D 6.811968083 _2_ MAC  PAN 0 BCN 12 [0 ffffffff 7 0] 
s 6.933312000 _1_ MAC  --- 0 BCN 12 [0 ffffffff 1 0] 
r 6.933888083 _2_ MAC  --- 0 BCN 12 [0 ffffffff 1 0] 
r 6.933888083 _0_ MAC  --- 0 BCN 12 [0 ffffffff 1 0] 
s 6.933952000 _5_ MAC  --- 0 BCN 12 [0 ffffffff 5 0] 
s 6.933952000 _3_ MAC  --- 0 BCN 12 [0 ffffffff 3 0] 
s 6.934272000 _7_ MAC  --- 0 BCN 12 [0 ffffffff 7 0] 
r 6.934528083 _6_ MAC  --- 0 BCN 12 [0 ffffffff 5 0] 
D 6.934528083 _0_ MAC  PAN 0 BCN 12 [0 ffffffff 3 0] 
D 6.934848083 _2_ MAC  PAN 0 BCN 12 [0 ffffffff 7 0] 
v 7 eval {set sim_annotation {(at 7.0) ftp traffic from node 7 to node 1}}
s 7.001792000 _7_ MAC  --- 0 AODV 55 [0 ffffffff 7 800] ------- [7:255 -1:255 30 0] [0x2 1 1 [1 0] [7 4]] (REQUEST)
r 7.004384083 _2_ MAC  --- 0 AODV 48 [0 ffffffff 7 800] ------- [7:255 -1:255 30 0] [0x2 1 1 [1 0] [7 4]] (REQUEST)
s 7.009792083 _2_ MAC  --- 0 AODV 55 [0 ffffffff 2 800] ------- [2:255 -1:255 29 0] [0x2 2 1 [1 0] [7 4]] (REQUEST)
r 7.012384167 _7_ MAC  --- 0 AODV 48 [0 ffffffff 2 800] ------- [2:255 -1:255 29 0] [0x2 2 1 [1 0] [7 4]] (REQUEST)
r 7.012384167 _1_ MAC  --- 0 AODV 48 [0 ffffffff 2 800] ------- [2:255 -1:255 29 0] [0x2 2 1 [1 0] [7 4]] (REQUEST)
s 7.014912000 _1_ MAC  --- 0 ARP 35 [0 ffffffff 1 806] ------- [REQUEST 1/1 0/2]
r 7.016864083 _2_ MAC  --- 0 ARP 28 [0 ffffffff 1 806] ------- [REQUEST 1/1 0/2]
r 7.016864083 _0_ MAC  --- 0 ARP 28 [0 ffffffff 1 806] ------- [REQUEST 1/1 0/2]
s 7.019392083 _2_ MAC  --- 0 ARP 35 [0 1 2 806] ------- [REPLY 2/2 1/1]
s 7.020992000 _1_ MAC  --- 0 ACK 5 [0 2 1 0] 
r 7.021344083 _2_ MAC  --- 0 ACK 5 [0 2 1 0] 
r 7.021984000 _1_ MAC  --- 0 ARP 28 [0 1 2 806] ------- [REPLY 2/2 1/1]
s 7.025152000 _1_ MAC  --- 0 AODV 51 [0 2 1 800] ------- [1:255 7:255 30 2] [0x4 1 [1 4] 10.000000] (REPLY)
s 7.027392083 _2_ MAC  --- 0 ACK 5 [0 1 2 0] 
r 7.027744167 _1_ MAC  --- 0 ACK 5 [0 1 2 0] 
r 7.028384083 _2_ MAC  --- 0 AODV 44 [0 2 1 800] ------- [1:255 7:255 30 2] [0x4 1 [1 4] 10.000000] (REPLY)
s 7.029312083 _2_ MAC  --- 0 ARP 35 [0 ffffffff 2 806] ------- [REQUEST 2/2 0/7]
r 7.031264167 _7_ MAC  --- 0 ARP 28 [0 ffffffff 2 806] ------- [REQUEST 2/2 0/7]
r 7.031264167 _1_ MAC  --- 0 ARP 28 [0 ffffffff 2 806] ------- [REQUEST 2/2 0/7]
s 7.034112000 _7_ MAC  --- 0 ARP 35 [0 2 7 806] ------- [REPLY 7/7 2/2]
s 7.035712083 _2_ MAC  --- 0 ACK 5 [0 7 2 0] 
r 7.036064167 _7_ MAC  --- 0 ACK 5 [0 7 2 0] 
r 7.036704083 _2_ MAC  --- 0 ARP 28 [0 2 7 806] ------- [REPLY 7/7 2/2]
s 7.038592083 _2_ MAC  --- 0 AODV 51 [0 7 2 800] ------- [1:255 7:255 29 7] [0x4 2 [1 4] 10.000000] (REPLY)
s 7.040832000 _7_ MAC  --- 0 ACK 5 [0 2 7 0] 
r 7.041184083 _2_ MAC  --- 0 ACK 5 [0 2 7 0] 
r 7.041824000 _7_ MAC  --- 0 AODV 44 [0 7 2 800] ------- [1:255 7:255 29 7] [0x4 2 [1 4] 10.000000] (REPLY)
s 7.044032000 _7_ MAC  --- 0 tcp 47 [0 2 7 800] ------- [7:0 1:0 30 2] [0 0] 0 0
s 7.045952083 _2_ MAC  --- 0 ACK 5 [0 7 2 0] 
r 7.046304167 _7_ MAC  --- 0 ACK 5 [0 7 2 0] 
r 7.046944083 _2_ MAC  --- 0 tcp 40 [0 2 7 800] ------- [7:0 1:0 30 2] [0 0] 1 0
s 7.048192083 _2_ MAC  --- 0 tcp 47 [0 1 2 800] ------- [7:0 1:0 29 1] [0 0] 1 0
s 7.050112000 _1_ MAC  --- 0 ACK 5 [0 2 1 0] 
r 7.050464083 _2_ MAC  --- 0 ACK 5 [0 2 1 0] 
r 7.051104000 _1_ MAC  --- 0 tcp 40 [0 1 2 800] ------- [7:0 1:0 29 1] [0 0] 2 0
s 7.056192000 _1_ MAC  --- 0 BCN 12 [0 ffffffff 1 0] 
r 7.056768083 _2_ MAC  --- 0 BCN 12 [0 ffffffff 1 0] 
r 7.056768083 _0_ MAC  --- 0 BCN 12 [0 ffffffff 1 0] 
s 7.056832000 _5_ MAC  --- 0 BCN 12 [0 ffffffff 5 0] 
s 7.056832000 _3_ MAC  --- 0 BCN 12 [0 ffffffff 3 0] 
s 7.057152000 _7_ MAC  --- 0 BCN 12 [0 ffffffff 7 0] 
r 7.057408083 _6_ MAC  --- 0 BCN 12 [0 ffffffff 5 0] 
D 7.057408083 _0_ MAC  PAN 0 BCN 12 [0 ffffffff 3 0] 
s 7.057472000 _1_ MAC  --- 1 ack 47 [0 2 1 800] ------- [1:0 7:0 30 2] [0 0] 0 0
D 7.057728083 _2_ MAC  LQI 0 BCN 12 [0 ffffffff 7 0] 
s 7.062912000 _1_ MAC  --- 1 ack 47 [0 2 1 800] ------- [1:0 7:0 30 2] [0 0] 0 0
s 7.064832083 _2_ MAC  --- 1 ACK 5 [0 1 2 0] 
r 7.065184167 _1_ MAC  --- 1 ACK 5 [0 1 2 0] 
r 7.065824083 _2_ MAC  --- 1 ack 40 [0 2 1 800] ------- [1:0 7:0 30 2] [0 0] 1 0
s 7.068032083 _2_ MAC  --- 1 ack 47 [0 7 2 800] ------- [1:0 7:0 29 7] [0 0] 1 0
s 7.069952000 _7_ MAC  --- 1 ACK 5 [0 2 7 0] 
r 7.070304083 _2_ MAC  --- 1 ACK 5 [0 2 7 0] 
r 7.070944000 _7_ MAC  --- 1 ack 40 [0 7 2 800] ------- [1:0 7:0 29 7] [0 0] 2 0
s 7.072832000 _7_ MAC  --- 2 tcp 97 [0 2 7 800] ------- [7:0 1:0 30 2] [1 0] 0 0