+ 0.2 0 1 tcp 40 ------- 0 0.0 1.0 0 0
- 0.2 0 1 tcp 40 ------- 0 0.0 1.0 0 0
r 0.210213 0 1 tcp 40 ------- 0 0.0 1.0 0 0
+ 0.210213 1 0 ack 40 ------- 0 1.0 0.0 0 1
- 0.210213 1 0 ack 40 ------- 0 1.0 0.0 0 1
r 0.220427 1 0 ack 40 ------- 0 1.0 0.0 0 1
+ 0.220427 0 1 tcp 1040 ------- 0 0.0 1.0 1 2
- 0.220427 0 1 tcp 1040 ------- 0 0.0 1.0 1 2
+ 0.220427 0 1 tcp 1040 ------- 0 0.0 1.0 2 3
- 0.225973 0 1 tcp 1040 ------- 0 0.0 1.0 2 3
r 0.235973 0 1 tcp 1040 ------- 0 0.0 1.0 1 2
+ 0.235973 1 0 ack 40 ------- 0 1.0 0.0 1 4
- 0.235973 1 0 ack 40 ------- 0 1.0 0.0 1 4
r 0.24152 0 1 tcp 1040 ------- 0 0.0 1.0 2 3
+ 0.24152 1 0 ack 40 ------- 0 1.0 0.0 2 5
- 0.24152 1 0 ack 40 ------- 0 1.0 0.0 2 5
r 0.246187 1 0 ack 40 ------- 0 1.0 0.0 1 4
+ 0.246187 0 1 tcp 1040 ------- 0 0.0 1.0 3 6
- 0.246187 0 1 tcp 1040 ------- 0 0.0 1.0 3 6
+ 0.246187 0 1 tcp 1040 ------- 0 0.0 1.0 4 7
- 0.251733 0 1 tcp 1040 ------- 0 0.0 1.0 4 7
r 0.251733 1 0 ack 40 ------- 0 1.0 0.0 2 5
+ 0.251733 0 1 tcp 1040 ------- 0 0.0 1.0 5 8
+ 0.251733 0 1 tcp 1040 ------- 0 0.0 1.0 6 9
- 0.25728 0 1 tcp 1040 ------- 0 0.0 1.0 5 8
r 0.261733 0 1 tcp 1040 ------- 0 0.0 1.0 3 6
+ 0.261733 1 0 ack 40 ------- 0 1.0 0.0 3 10
- 0.261733 1 0 ack 40 ------- 0 1.0 0.0 3 10
- 0.262827 0 1 tcp 1040 ------- 0 0.0 1.0 6 9
r 0.26728 0 1 tcp 1040 ------- 0 0.0 1.0 4 7
+ 0.26728 1 0 ack 40 ------- 0 1.0 0.0 4 11
- 0.26728 1 0 ack 40 ------- 0 1.0 0.0 4 11
r 0.271947 1 0 ack 40 ------- 0 1.0 0.0 3 10
+ 0.271947 0 1 tcp 1040 ------- 0 0.0 1.0 7 12
- 0.271947 0 1 tcp 1040 ------- 0 0.0 1.0 7 12
+ 0.271947 0 1 tcp 1040 ------- 0 0.0 1.0 8 13
r 0.272827 0 1 tcp 1040 ------- 0 0.0 1.0 5 8
+ 0.272827 1 0 ack 40 ------- 0 1.0 0.0 5 14
- 0.272827 1 0 ack 40 ------- 0 1.0 0.0 5 14
r 0.277493 1 0 ack 40 ------- 0 1.0 0.0 4 11
+ 0.277493 0 1 tcp 1040 ------- 0 0.0 1.0 9 15
+ 0.277493 0 1 tcp 1040 ------- 0 0.0 1.0 10 16
- 0.277493 0 1 tcp 1040 ------- 0 0.0 1.0 8 13
r 0.278373 0 1 tcp 1040 ------- 0 0.0 1.0 6 9
+ 0.278373 1 0 ack 40 ------- 0 1.0 0.0 6 17
- 0.278373 1 0 ack 40 ------- 0 1.0 0.0 6 17
r 0.28304 1 0 ack 40 ------- 0 1.0 0.0 5 14
+ 0.28304 0 1 tcp 1040 ------- 0 0.0 1.0 11 18
+ 0.28304 0 1 tcp 1040 ------- 0 0.0 1.0 12 19
- 0.28304 0 1 tcp 1040 ------- 0 0.0 1.0 9 15
r 0.287493 0 1 tcp 1040 ------- 0 0.0 1.0 7 12
+ 0.287493 1 0 ack 40 ------- 0 1.0 0.0 7 20
- 0.287493 1 0 ack 40 ------- 0 1.0 0.0 7 20
r 0.288587 1 0 ack 40 ------- 0 1.0 0.0 6 17
+ 0.288587 0 1 tcp 1040 ------- 0 0.0 1.0 13 21
+ 0.288587 0 1 tcp 1040 ------- 0 0.0 1.0 14 22
- 0.288587 0 1 tcp 1040 ------- 0 0.0 1.0 10 16
r 0.29304 0 1 tcp 1040 ------- 0 0.0 1.0 8 13
+ 0.29304 1 0 ack 40 ------- 0 1.0 0.0 8 23
- 0.29304 1 0 ack 40 ------- 0 1.0 0.0 8 23
- 0.294133 0 1 tcp 1040 ------- 0 0.0 1.0 11 18
r 0.297707 1 0 ack 40 ------- 0 1.0 0.0 7 20
+ 0.297707 0 1 tcp 1040 ------- 0 0.0 1.0 15 24
+ 0.297707 0 1 tcp 1040 ------- 0 0.0 1.0 16 25
r 0.298587 0 1 tcp 1040 ------- 0 0.0 1.0 9 15
+ 0.298587 1 0 ack 40 ------- 0 1.0 0.0 9 26
- 0.298587 1 0 ack 40 ------- 0 1.0 0.0 9 26
- 0.29968 0 1 tcp 1040 ------- 0 0.0 1.0 12 19
r 0.303253 1 0 ack 40 ------- 0 1.0 0.0 8 23
+ 0.303253 0 1 tcp 1040 ------- 0 0.0 1.0 17 27
+ 0.303253 0 1 tcp 1040 ------- 0 0.0 1.0 18 28
r 0.304133 0 1 tcp 1040 ------- 0 0.0 1.0 10 16
+ 0.304133 1 0 ack 40 ------- 0 1.0 0.0 10 29
- 0.304133 1 0 ack 40 ------- 0 1.0 0.0 10 29
- 0.305227 0 1 tcp 1040 ------- 0 0.0 1.0 13 21
r 0.3088 1 0 ack 40 ------- 0 1.0 0.0 9 26
+ 0.3088 0 1 tcp 1040 ------- 0 0.0 1.0 19 30
+ 0.3088 0 1 tcp 1040 ------- 0 0.0 1.0 20 31
r 0.30968 0 1 tcp 1040 ------- 0 0.0 1.0 11 18
+ 0.30968 1 0 ack 40 ------- 0 1.0 0.0 11 32
- 0.30968 1 0 ack 40 ------- 0 1.0 0.0 11 32
- 0.310773 0 1 tcp 1040 ------- 0 0.0 1.0 14 22
r 0.314347 1 0 ack 40 ------- 0 1.0 0.0 10 29
+ 0.314347 0 1 tcp 1040 ------- 0 0.0 1.0 21 33
+ 0.314347 0 1 tcp 1040 ------- 0 0.0 1.0 22 34
r 0.315227 0 1 tcp 1040 ------- 0 0.0 1.0 12 19
+ 0.315227 1 0 ack 40 ------- 0 1.0 0.0 12 35
- 0.315227 1 0 ack 40 ------- 0 1.0 0.0 12 35
- 0.31632 0 1 tcp 1040 ------- 0 0.0 1.0 15 24
r 0.319893 1 0 ack 40 ------- 0 1.0 0.0 11 32
+ 0.319893 0 1 tcp 1040 ------- 0 0.0 1.0 23 36
+ 0.319893 0 1 tcp 1040 ------- 0 0.0 1.0 24 37
r 0.320773 0 1 tcp 1040 ------- 0 0.0 1.0 13 21
+ 0.320773 1 0 ack 40 ------- 0 1.0 0.0 13 38
- 0.320773 1 0 ack 40 ------- 0 1.0 0.0 13 38
- 0.321867 0 1 tcp 1040 ------- 0 0.0 1.0 16 25
r 0.32544 1 0 ack 40 ------- 0 1.0 0.0 12 35
+ 0.32544 0 1 tcp 1040 ------- 0 0.0 1.0 25 39
+ 0.32544 0 1 tcp 1040 ------- 0 0.0 1.0 26 40
r 0.32632 0 1 tcp 1040 ------- 0 0.0 1.0 14 22
+ 0.32632 1 0 ack 40 ------- 0 1.0 0.0 14 41
- 0.32632 1 0 ack 40 ------- 0 1.0 0.0 14 41
- 0.327413 0 1 tcp 1040 ------- 0 0.0 1.0 17 27
r 0.330987 1 0 ack 40 ------- 0 1.0 0.0 13 38
+ 0.330987 0 1 tcp 1040 ------- 0 0.0 1.0 27 42
+ 0.330987 0 1 tcp 1040 ------- 0 0.0 1.0 28 43
r 0.331867 0 1 tcp 1040 ------- 0 0.0 1.0 15 24
+ 0.331867 1 0 ack 40 ------- 0 1.0 0.0 15 44
- 0.331867 1 0 ack 40 ------- 0 1.0 0.0 15 44
- 0.33296 0 1 tcp 1040 ------- 0 0.0 1.0 18 28
r 0.336533 1 0 ack 40 ------- 0 1.0 0.0 14 41
+ 0.336533 0 1 tcp 1040 ------- 0 0.0 1.0 29 45
+ 0.336533 0 1 tcp 1040 ------- 0 0.0 1.0 30 46
r 0.337413 0 1 tcp 1040 ------- 0 0.0 1.0 16 25
+ 0.337413 1 0 ack 40 ------- 0 1.0 0.0 16 47
- 0.337413 1 0 ack 40 ------- 0 1.0 0.0 16 47
- 0.338507 0 1 tcp 1040 ------- 0 0.0 1.0 19 30
r 0.34208 1 0 ack 40 ------- 0 1.0 0.0 15 44
+ 0.34208 0 1 tcp 1040 ------- 0 0.0 1.0 31 48
+ 0.34208 0 1 tcp 1040 ------- 0 0.0 1.0 32 49
r 0.34296 0 1 tcp 1040 ------- 0 0.0 1.0 17 27
+ 0.34296 1 0 ack 40 ------- 0 1.0 0.0 17 50
- 0.34296 1 0 ack 40 ------- 0 1.0 0.0 17 50
- 0.344053 0 1 tcp 1040 ------- 0 0.0 1.0 20 31
r 0.347627 1 0 ack 40 ------- 0 1.0 0.0 16 47
+ 0.347627 0 1 tcp 1040 ------- 0 0.0 1.0 33 51
+ 0.347627 0 1 tcp 1040 ------- 0 0.0 1.0 34 52
r 0.348507 0 1 tcp 1040 ------- 0 0.0 1.0 18 28
+ 0.348507 1 0 ack 40 ------- 0 1.0 0.0 18 53
- 0.348507 1 0 ack 40 ------- 0 1.0 0.0 18 53
- 0.3496 0 1 tcp 1040 ------- 0 0.0 1.0 21 33
r 0.353173 1 0 ack 40 ------- 0 1.0 0.0 17 50
+ 0.353173 0 1 tcp 1040 ------- 0 0.0 1.0 35 54
+ 0.353173 0 1 tcp 1040 ------- 0 0.0 1.0 36 55
r 0.354053 0 1 tcp 1040 ------- 0 0.0 1.0 19 30
+ 0.354053 1 0 ack 40 ------- 0 1.0 0.0 19 56
- 0.354053 1 0 ack 40 ------- 0 1.0 0.0 19 56
- 0.355147 0 1 tcp 1040 ------- 0 0.0 1.0 22 34
r 0.35872 1 0 ack 40 ------- 0 1.0 0.0 18 53
+ 0.35872 0 1 tcp 1040 ------- 0 0.0 1.0 37 57
+ 0.35872 0 1 tcp 1040 ------- 0 0.0 1.0 38 58
r 0.3596 0 1 tcp 1040 ------- 0 0.0 1.0 20 31
+ 0.3596 1 0 ack 40 ------- 0 1.0 0.0 20 59
- 0.3596 1 0 ack 40 ------- 0 1.0 0.0 20 59
- 0.360693 0 1 tcp 1040 ------- 0 0.0 1.0 23 36
r 0.364267 1 0 ack 40 ------- 0 1.0 0.0 19 56
+ 0.364267 0 1 tcp 1040 ------- 0 0.0 1.0 39 60
r 0.365147 0 1 tcp 1040 ------- 0 0.0 1.0 21 33
+ 0.365147 1 0 ack 40 ------- 0 1.0 0.0 21 61
- 0.365147 1 0 ack 40 ------- 0 1.0 0.0 21 61
- 0.36624 0 1 tcp 1040 ------- 0 0.0 1.0 24 37
r 0.369813 1 0 ack 40 ------- 0 1.0 0.0 20 59
+ 0.369813 0 1 tcp 1040 ------- 0 0.0 1.0 40 62
r 0.370693 0 1 tcp 1040 ------- 0 0.0 1.0 22 34
+ 0.370693 1 0 ack 40 ------- 0 1.0 0.0 22 63
- 0.370693 1 0 ack 40 ------- 0 1.0 0.0 22 63
- 0.371787 0 1 tcp 1040 ------- 0 0.0 1.0 25 39
r 0.37536 1 0 ack 40 ------- 0 1.0 0.0 21 61
+ 0.37536 0 1 tcp 1040 ------- 0 0.0 1.0 41 64
r 0.37624 0 1 tcp 1040 ------- 0 0.0 1.0 23 36
+ 0.37624 1 0 ack 40 ------- 0 1.0 0.0 23 65
- 0.37624 1 0 ack 40 ------- 0 1.0 0.0 23 65
- 0.377333 0 1 tcp 1040 ------- 0 0.0 1.0 26 40
r 0.380907 1 0 ack 40 ------- 0 1.0 0.0 22 63
+ 0.380907 0 1 tcp 1040 ------- 0 0.0 1.0 42 66
r 0.381787 0 1 tcp 1040 ------- 0 0.0 1.0 24 37
+ 0.381787 1 0 ack 40 ------- 0 1.0 0.0 24 67
- 0.381787 1 0 ack 40 ------- 0 1.0 0.0 24 67
- 0.38288 0 1 tcp 1040 ------- 0 0.0 1.0 27 42
r 0.386453 1 0 ack 40 ------- 0 1.0 0.0 23 65
+ 0.386453 0 1 tcp 1040 ------- 0 0.0 1.0 43 68
r 0.387333 0 1 tcp 1040 ------- 0 0.0 1.0 25 39
+ 0.387333 1 0 ack 40 ------- 0 1.0 0.0 25 69
- 0.387333 1 0 ack 40 ------- 0 1.0 0.0 25 69
- 0.388427 0 1 tcp 1040 ------- 0 0.0 1.0 28 43
r 0.392 1 0 ack 40 ------- 0 1.0 0.0 24 67
+ 0.392 0 1 tcp 1040 ------- 0 0.0 1.0 44 70
r 0.39288 0 1 tcp 1040 ------- 0 0.0 1.0 26 40
+ 0.39288 1 0 ack 40 ------- 0 1.0 0.0 26 71
- 0.39288 1 0 ack 40 ------- 0 1.0 0.0 26 71
- 0.393973 0 1 tcp 1040 ------- 0 0.0 1.0 29 45
r 0.397547 1 0 ack 40 ------- 0 1.0 0.0 25 69
+ 0.397547 0 1 tcp 1040 ------- 0 0.0 1.0 45 72
r 0.398427 0 1 tcp 1040 ------- 0 0.0 1.0 27 42
+ 0.398427 1 0 ack 40 ------- 0 1.0 0.0 27 73
- 0.398427 1 0 ack 40 ------- 0 1.0 0.0 27 73
- 0.39952 0 1 tcp 1040 ------- 0 0.0 1.0 30 46
r 0.403093 1 0 ack 40 ------- 0 1.0 0.0 26 71
+ 0.403093 0 1 tcp 1040 ------- 0 0.0 1.0 46 74
r 0.403973 0 1 tcp 1040 ------- 0 0.0 1.0 28 43
+ 0.403973 1 0 ack 40 ------- 0 1.0 0.0 28 75
- 0.403973 1 0 ack 40 ------- 0 1.0 0.0 28 75
- 0.405067 0 1 tcp 1040 ------- 0 0.0 1.0 31 48
r 0.40864 1 0 ack 40 ------- 0 1.0 0.0 27 73
+ 0.40864 0 1 tcp 1040 ------- 0 0.0 1.0 47 76
r 0.40952 0 1 tcp 1040 ------- 0 0.0 1.0 29 45
+ 0.40952 1 0 ack 40 ------- 0 1.0 0.0 29 77
- 0.40952 1 0 ack 40 ------- 0 1.0 0.0 29 77
- 0.410613 0 1 tcp 1040 ------- 0 0.0 1.0 32 49
r 0.414187 1 0 ack 40 ------- 0 1.0 0.0 28 75
+ 0.414187 0 1 tcp 1040 ------- 0 0.0 1.0 48 78
r 0.415067 0 1 tcp 1040 ------- 0 0.0 1.0 30 46
+ 0.415067 1 0 ack 40 ------- 0 1.0 0.0 30 79
- 0.415067 1 0 ack 40 ------- 0 1.0 0.0 30 79
- 0.41616 0 1 tcp 1040 ------- 0 0.0 1.0 33 51
r 0.419733 1 0 ack 40 ------- 0 1.0 0.0 29 77
+ 0.419733 0 1 tcp 1040 ------- 0 0.0 1.0 49 80
r 0.420613 0 1 tcp 1040 ------- 0 0.0 1.0 31 48
+ 0.420613 1 0 ack 40 ------- 0 1.0 0.0 31 81
- 0.420613 1 0 ack 40 ------- 0 1.0 0.0 31 81
- 0.421707 0 1 tcp 1040 ------- 0 0.0 1.0 34 52
r 0.42528 1 0 ack 40 ------- 0 1.0 0.0 30 79
+ 0.42528 0 1 tcp 1040 ------- 0 0.0 1.0 50 82
r 0.42616 0 1 tcp 1040 ------- 0 0.0 1.0 32 49
+ 0.42616 1 0 ack 40 ------- 0 1.0 0.0 32 83
- 0.42616 1 0 ack 40 ------- 0 1.0 0.0 32 83
- 0.427253 0 1 tcp 1040 ------- 0 0.0 1.0 35 54
r 0.430827 1 0 ack 40 ------- 0 1.0 0.0 31 81
+ 0.430827 0 1 tcp 1040 ------- 0 0.0 1.0 51 84
r 0.431707 0 1 tcp 1040 ------- 0 0.0 1.0 33 51
+ 0.431707 1 0 ack 40 ------- 0 1.0 0.0 33 85
- 0.431707 1 0 ack 40 ------- 0 1.0 0.0 33 85
- 0.4328 0 1 tcp 1040 ------- 0 0.0 1.0 36 55
r 0.436373 1 0 ack 40 ------- 0 1.0 0.0 32 83
+ 0.436373 0 1 tcp 1040 ------- 0 0.0 1.0 52 86
r 0.437253 0 1 tcp 1040 ------- 0 0.0 1.0 34 52
+ 0.437253 1 0 ack 40 ------- 0 1.0 0.0 34 87
- 0.437253 1 0 ack 40 ------- 0 1.0 0.0 34 87
- 0.438347 0 1 tcp 1040 ------- 0 0.0 1.0 37 57
r 0.44192 1 0 ack 40 ------- 0 1.0 0.0 33 85
+ 0.44192 0 1 tcp 1040 ------- 0 0.0 1.0 53 88
r 0.4428 0 1 tcp 1040 ------- 0 0.0 1.0 35 54
+ 0.4428 1 0 ack 40 ------- 0 1.0 0.0 35 89
- 0.4428 1 0 ack 40 ------- 0 1.0 0.0 35 89
- 0.443893 0 1 tcp 1040 ------- 0 0.0 1.0 38 58
r 0.447467 1 0 ack 40 ------- 0 1.0 0.0 34 87
+ 0.447467 0 1 tcp 1040 ------- 0 0.0 1.0 54 90
r 0.448347 0 1 tcp 1040 ------- 0 0.0 1.0 36 55
+ 0.448347 1 0 ack 40 ------- 0 1.0 0.0 36 91
- 0.448347 1 0 ack 40 ------- 0 1.0 0.0 36 91
- 0.44944 0 1 tcp 1040 ------- 0 0.0 1.0 39 60
r 0.453013 1 0 ack 40 ------- 0 1.0 0.0 35 89
+ 0.453013 0 1 tcp 1040 ------- 0 0.0 1.0 55 92
r 0.453893 0 1 tcp 1040 ------- 0 0.0 1.0 37 57
+ 0.453893 1 0 ack 40 ------- 0 1.0 0.0 37 93
- 0.453893 1 0 ack 40 ------- 0 1.0 0.0 37 93
- 0.454987 0 1 tcp 1040 ------- 0 0.0 1.0 40 62
r 0.45856 1 0 ack 40 ------- 0 1.0 0.0 36 91
+ 0.45856 0 1 tcp 1040 ------- 0 0.0 1.0 56 94
r 0.45944 0 1 tcp 1040 ------- 0 0.0 1.0 38 58
+ 0.45944 1 0 ack 40 ------- 0 1.0 0.0 38 95
- 0.45944 1 0 ack 40 ------- 0 1.0 0.0 38 95
- 0.460533 0 1 tcp 1040 ------- 0 0.0 1.0 41 64
r 0.464107 1 0 ack 40 ------- 0 1.0 0.0 37 93
+ 0.464107 0 1 tcp 1040 ------- 0 0.0 1.0 57 96
r 0.464987 0 1 tcp 1040 ------- 0 0.0 1.0 39 60
+ 0.464987 1 0 ack 40 ------- 0 1.0 0.0 39 97
- 0.464987 1 0 ack 40 ------- 0 1.0 0.0 39 97
- 0.46608 0 1 tcp 1040 ------- 0 0.0 1.0 42 66
r 0.469653 1 0 ack 40 ------- 0 1.0 0.0 38 95
+ 0.469653 0 1 tcp 1040 ------- 0 0.0 1.0 58 98
r 0.470533 0 1 tcp 1040 ------- 0 0.0 1.0 40 62
+ 0.470533 1 0 ack 40 ------- 0 1.0 0.0 40 99
- 0.470533 1 0 ack 40 ------- 0 1.0 0.0 40 99
- 0.471627 0 1 tcp 1040 ------- 0 0.0 1.0 43 68
r 0.4752 1 0 ack 40 ------- 0 1.0 0.0 39 97
+ 0.4752 0 1 tcp 1040 ------- 0 0.0 1.0 59 100
r 0.47608 0 1 tcp 1040 ------- 0 0.0 1.0 41 64
+ 0.47608 1 0 ack 40 ------- 0 1.0 0.0 41 101
- 0.47608 1 0 ack 40 ------- 0 1.0 0.0 41 101
- 0.477173 0 1 tcp 1040 ------- 0 0.0 1.0 44 70
r 0.480747 1 0 ack 40 ------- 0 1.0 0.0 40 99
+ 0.480747 0 1 tcp 1040 ------- 0 0.0 1.0 60 102
r 0.481627 0 1 tcp 1040 ------- 0 0.0 1.0 42 66
+ 0.481627 1 0 ack 40 ------- 0 1.0 0.0 42 103
- 0.481627 1 0 ack 40 ------- 0 1.0 0.0 42 103
- 0.48272 0 1 tcp 1040 ------- 0 0.0 1.0 45 72
r 0.486293 1 0 ack 40 ------- 0 1.0 0.0 41 101
+ 0.486293 0 1 tcp 1040 ------- 0 0.0 1.0 61 104
r 0.487173 0 1 tcp 1040 ------- 0 0.0 1.0 43 68
+ 0.487173 1 0 ack 40 ------- 0 1.0 0.0 43 105
- 0.487173 1 0 ack 40 ------- 0 1.0 0.0 43 105
- 0.488267 0 1 tcp 1040 ------- 0 0.0 1.0 46 74
r 0.49184 1 0 ack 40 ------- 0 1.0 0.0 42 103
+ 0.49184 0 1 tcp 1040 ------- 0 0.0 1.0 62 106
r 0.49272 0 1 tcp 1040 ------- 0 0.0 1.0 44 70
+ 0.49272 1 0 ack 40 ------- 0 1.0 0.0 44 107
- 0.49272 1 0 ack 40 ------- 0 1.0 0.0 44 107
- 0.493813 0 1 tcp 1040 ------- 0 0.0 1.0 47 76
r 0.497387 1 0 ack 40 ------- 0 1.0 0.0 43 105
+ 0.497387 0 1 tcp 1040 ------- 0 0.0 1.0 63 108
r 0.498267 0 1 tcp 1040 ------- 0 0.0 1.0 45 72
+ 0.498267 1 0 ack 40 ------- 0 1.0 0.0 45 109
- 0.498267 1 0 ack 40 ------- 0 1.0 0.0 45 109
- 0.49936 0 1 tcp 1040 ------- 0 0.0 1.0 48 78
r 0.502933 1 0 ack 40 ------- 0 1.0 0.0 44 107
+ 0.502933 0 1 tcp 1040 ------- 0 0.0 1.0 64 110
r 0.503813 0 1 tcp 1040 ------- 0 0.0 1.0 46 74
+ 0.503813 1 0 ack 40 ------- 0 1.0 0.0 46 111
- 0.503813 1 0 ack 40 ------- 0 1.0 0.0 46 111
- 0.504907 0 1 tcp 1040 ------- 0 0.0 1.0 49 80
r 0.50848 1 0 ack 40 ------- 0 1.0 0.0 45 109
+ 0.50848 0 1 tcp 1040 ------- 0 0.0 1.0 65 112
r 0.50936 0 1 tcp 1040 ------- 0 0.0 1.0 47 76
+ 0.50936 1 0 ack 40 ------- 0 1.0 0.0 47 113
- 0.50936 1 0 ack 40 ------- 0 1.0 0.0 47 113
- 0.510453 0 1 tcp 1040 ------- 0 0.0 1.0 50 82
r 0.514027 1 0 ack 40 ------- 0 1.0 0.0 46 111
+ 0.514027 0 1 tcp 1040 ------- 0 0.0 1.0 66 114
r 0.514907 0 1 tcp 1040 ------- 0 0.0 1.0 48 78
+ 0.514907 1 0 ack 40 ------- 0 1.0 0.0 48 115
- 0.514907 1 0 ack 40 ------- 0 1.0 0.0 48 115
- 0.516 0 1 tcp 1040 ------- 0 0.0 1.0 51 84
r 0.519573 1 0 ack 40 ------- 0 1.0 0.0 47 113
+ 0.519573 0 1 tcp 1040 ------- 0 0.0 1.0 67 116
r 0.520453 0 1 tcp 1040 ------- 0 0.0 1.0 49 80
+ 0.520453 1 0 ack 40 ------- 0 1.0 0.0 49 117
- 0.520453 1 0 ack 40 ------- 0 1.0 0.0 49 117
- 0.521547 0 1 tcp 1040 ------- 0 0.0 1.0 52 86
r 0.52512 1 0 ack 40 ------- 0 1.0 0.0 48 115
+ 0.52512 0 1 tcp 1040 ------- 0 0.0 1.0 68 118
r 0.526 0 1 tcp 1040 ------- 0 0.0 1.0 50 82
+ 0.526 1 0 ack 40 ------- 0 1.0 0.0 50 119
- 0.526 1 0 ack 40 ------- 0 1.0 0.0 50 119
- 0.527093 0 1 tcp 1040 ------- 0 0.0 1.0 53 88
r 0.530667 1 0 ack 40 ------- 0 1.0 0.0 49 117
+ 0.530667 0 1 tcp 1040 ------- 0 0.0 1.0 69 120
r 0.531547 0 1 tcp 1040 ------- 0 0.0 1.0 51 84
+ 0.531547 1 0 ack 40 ------- 0 1.0 0.0 51 121
- 0.531547 1 0 ack 40 ------- 0 1.0 0.0 51 121
- 0.53264 0 1 tcp 1040 ------- 0 0.0 1.0 54 90
r 0.536213 1 0 ack 40 ------- 0 1.0 0.0 50 119
+ 0.536213 0 1 tcp 1040 ------- 0 0.0 1.0 70 122
r 0.537093 0 1 tcp 1040 ------- 0 0.0 1.0 52 86
+ 0.537093 1 0 ack 40 ------- 0 1.0 0.0 52 123
- 0.537093 1 0 ack 40 ------- 0 1.0 0.0 52 123
- 0.538187 0 1 tcp 1040 ------- 0 0.0 1.0 55 92
r 0.54176 1 0 ack 40 ------- 0 1.0 0.0 51 121
+ 0.54176 0 1 tcp 1040 ------- 0 0.0 1.0 71 124
r 0.54264 0 1 tcp 1040 ------- 0 0.0 1.0 53 88
+ 0.54264 1 0 ack 40 ------- 0 1.0 0.0 53 125
- 0.54264 1 0 ack 40 ------- 0 1.0 0.0 53 125
- 0.543733 0 1 tcp 1040 ------- 0 0.0 1.0 56 94
r 0.547307 1 0 ack 40 ------- 0 1.0 0.0 52 123
+ 0.547307 0 1 tcp 1040 ------- 0 0.0 1.0 72 126
r 0.548187 0 1 tcp 1040 ------- 0 0.0 1.0 54 90
+ 0.548187 1 0 ack 40 ------- 0 1.0 0.0 54 127
- 0.548187 1 0 ack 40 ------- 0 1.0 0.0 54 127
- 0.54928 0 1 tcp 1040 ------- 0 0.0 1.0 57 96
r 0.552853 1 0 ack 40 ------- 0 1.0 0.0 53 125
+ 0.552853 0 1 tcp 1040 ------- 0 0.0 1.0 73 128
r 0.553733 0 1 tcp 1040 ------- 0 0.0 1.0 55 92
+ 0.553733 1 0 ack 40 ------- 0 1.0 0.0 55 129
- 0.553733 1 0 ack 40 ------- 0 1.0 0.0 55 129
- 0.554827 0 1 tcp 1040 ------- 0 0.0 1.0 58 98
r 0.5584 1 0 ack 40 ------- 0 1.0 0.0 54 127
+ 0.5584 0 1 tcp 1040 ------- 0 0.0 1.0 74 130
r 0.55928 0 1 tcp 1040 ------- 0 0.0 1.0 56 94
+ 0.55928 1 0 ack 40 ------- 0 1.0 0.0 56 131
- 0.55928 1 0 ack 40 ------- 0 1.0 0.0 56 131
- 0.560373 0 1 tcp 1040 ------- 0 0.0 1.0 59 100
r 0.563947 1 0 ack 40 ------- 0 1.0 0.0 55 129
+ 0.563947 0 1 tcp 1040 ------- 0 0.0 1.0 75 132
r 0.564827 0 1 tcp 1040 ------- 0 0.0 1.0 57 96
+ 0.564827 1 0 ack 40 ------- 0 1.0 0.0 57 133
- 0.564827 1 0 ack 40 ------- 0 1.0 0.0 57 133
- 0.56592 0 1 tcp 1040 ------- 0 0.0 1.0 60 102
r 0.569493 1 0 ack 40 ------- 0 1.0 0.0 56 131
+ 0.569493 0 1 tcp 1040 ------- 0 0.0 1.0 76 134
r 0.570373 0 1 tcp 1040 ------- 0 0.0 1.0 58 98
+ 0.570373 1 0 ack 40 ------- 0 1.0 0.0 58 135
- 0.570373 1 0 ack 40 ------- 0 1.0 0.0 58 135
- 0.571467 0 1 tcp 1040 ------- 0 0.0 1.0 61 104
r 0.57504 1 0 ack 40 ------- 0 1.0 0.0 57 133
+ 0.57504 0 1 tcp 1040 ------- 0 0.0 1.0 77 136
r 0.57592 0 1 tcp 1040 ------- 0 0.0 1.0 59 100
+ 0.57592 1 0 ack 40 ------- 0 1.0 0.0 59 137
- 0.57592 1 0 ack 40 ------- 0 1.0 0.0 59 137
- 0.577013 0 1 tcp 1040 ------- 0 0.0 1.0 62 106
r 0.580587 1 0 ack 40 ------- 0 1.0 0.0 58 135
+ 0.580587 0 1 tcp 1040 ------- 0 0.0 1.0 78 138
r 0.581467 0 1 tcp 1040 ------- 0 0.0 1.0 60 102
+ 0.581467 1 0 ack 40 ------- 0 1.0 0.0 60 139
- 0.581467 1 0 ack 40 ------- 0 1.0 0.0 60 139
- 0.58256 0 1 tcp 1040 ------- 0 0.0 1.0 63 108
r 0.586133 1 0 ack 40 ------- 0 1.0 0.0 59 137
+ 0.586133 0 1 tcp 1040 ------- 0 0.0 1.0 79 140
r 0.587013 0 1 tcp 1040 ------- 0 0.0 1.0 61 104
+ 0.587013 1 0 ack 40 ------- 0 1.0 0.0 61 141
- 0.587013 1 0 ack 40 ------- 0 1.0 0.0 61 141
- 0.588107 0 1 tcp 1040 ------- 0 0.0 1.0 64 110
r 0.59168 1 0 ack 40 ------- 0 1.0 0.0 60 139
+ 0.59168 0 1 tcp 1040 ------- 0 0.0 1.0 80 142
r 0.59256 0 1 tcp 1040 ------- 0 0.0 1.0 62 106
+ 0.59256 1 0 ack 40 ------- 0 1.0 0.0 62 143
- 0.59256 1 0 ack 40 ------- 0 1.0 0.0 62 143
- 0.593653 0 1 tcp 1040 ------- 0 0.0 1.0 65 112
r 0.597227 1 0 ack 40 ------- 0 1.0 0.0 61 141
+ 0.597227 0 1 tcp 1040 ------- 0 0.0 1.0 81 144
r 0.598107 0 1 tcp 1040 ------- 0 0.0 1.0 63 108
+ 0.598107 1 0 ack 40 ------- 0 1.0 0.0 63 145
- 0.598107 1 0 ack 40 ------- 0 1.0 0.0 63 145
- 0.5992 0 1 tcp 1040 ------- 0 0.0 1.0 66 114
r 0.602773 1 0 ack 40 ------- 0 1.0 0.0 62 143
+ 0.602773 0 1 tcp 1040 ------- 0 0.0 1.0 82 146
r 0.603653 0 1 tcp 1040 ------- 0 0.0 1.0 64 110
+ 0.603653 1 0 ack 40 ------- 0 1.0 0.0 64 147
- 0.603653 1 0 ack 40 ------- 0 1.0 0.0 64 147
- 0.604747 0 1 tcp 1040 ------- 0 0.0 1.0 67 116
r 0.60832 1 0 ack 40 ------- 0 1.0 0.0 63 145
+ 0.60832 0 1 tcp 1040 ------- 0 0.0 1.0 83 148
r 0.6092 0 1 tcp 1040 ------- 0 0.0 1.0 65 112
+ 0.6092 1 0 ack 40 ------- 0 1.0 0.0 65 149
- 0.6092 1 0 ack 40 ------- 0 1.0 0.0 65 149
- 0.610293 0 1 tcp 1040 ------- 0 0.0 1.0 68 118
r 0.613867 1 0 ack 40 ------- 0 1.0 0.0 64 147
+ 0.613867 0 1 tcp 1040 ------- 0 0.0 1.0 84 150
r 0.614747 0 1 tcp 1040 ------- 0 0.0 1.0 66 114
+ 0.614747 1 0 ack 40 ------- 0 1.0 0.0 66 151
- 0.614747 1 0 ack 40 ------- 0 1.0 0.0 66 151
- 0.61584 0 1 tcp 1040 ------- 0 0.0 1.0 69 120
r 0.619413 1 0 ack 40 ------- 0 1.0 0.0 65 149
+ 0.619413 0 1 tcp 1040 ------- 0 0.0 1.0 85 152
r 0.620293 0 1 tcp 1040 ------- 0 0.0 1.0 67 116
+ 0.620293 1 0 ack 40 ------- 0 1.0 0.0 67 153
- 0.620293 1 0 ack 40 ------- 0 1.0 0.0 67 153
- 0.621387 0 1 tcp 1040 ------- 0 0.0 1.0 70 122
r 0.62496 1 0 ack 40 ------- 0 1.0 0.0 66 151
+ 0.62496 0 1 tcp 1040 ------- 0 0.0 1.0 86 154
r 0.62584 0 1 tcp 1040 ------- 0 0.0 1.0 68 118
+ 0.62584 1 0 ack 40 ------- 0 1.0 0.0 68 155
- 0.62584 1 0 ack 40 ------- 0 1.0 0.0 68 155
- 0.626933 0 1 tcp 1040 ------- 0 0.0 1.0 71 124
r 0.630507 1 0 ack 40 ------- 0 1.0 0.0 67 153
+ 0.630507 0 1 tcp 1040 ------- 0 0.0 1.0 87 156
r 0.631387 0 1 tcp 1040 ------- 0 0.0 1.0 69 120
+ 0.631387 1 0 ack 40 ------- 0 1.0 0.0 69 157
- 0.631387 1 0 ack 40 ------- 0 1.0 0.0 69 157
- 0.63248 0 1 tcp 1040 ------- 0 0.0 1.0 72 126
r 0.636053 1 0 ack 40 ------- 0 1.0 0.0 68 155
+ 0.636053 0 1 tcp 1040 ------- 0 0.0 1.0 88 158
r 0.636933 0 1 tcp 1040 ------- 0 0.0 1.0 70 122
+ 0.636933 1 0 ack 40 ------- 0 1.0 0.0 70 159
- 0.636933 1 0 ack 40 ------- 0 1.0 0.0 70 159
- 0.638027 0 1 tcp 1040 ------- 0 0.0 1.0 73 128
r 0.6416 1 0 ack 40 ------- 0 1.0 0.0 69 157
+ 0.6416 0 1 tcp 1040 ------- 0 0.0 1.0 89 160
r 0.64248 0 1 tcp 1040 ------- 0 0.0 1.0 71 124
+ 0.64248 1 0 ack 40 ------- 0 1.0 0.0 71 161
- 0.64248 1 0 ack 40 ------- 0 1.0 0.0 71 161
- 0.643573 0 1 tcp 1040 ------- 0 0.0 1.0 74 130
r 0.647147 1 0 ack 40 ------- 0 1.0 0.0 70 159
+ 0.647147 0 1 tcp 1040 ------- 0 0.0 1.0 90 162
r 0.648027 0 1 tcp 1040 ------- 0 0.0 1.0 72 126
+ 0.648027 1 0 ack 40 ------- 0 1.0 0.0 72 163
- 0.648027 1 0 ack 40 ------- 0 1.0 0.0 72 163
- 0.64912 0 1 tcp 1040 ------- 0 0.0 1.0 75 132
r 0.652693 1 0 ack 40 ------- 0 1.0 0.0 71 161
+ 0.652693 0 1 tcp 1040 ------- 0 0.0 1.0 91 164
r 0.653573 0 1 tcp 1040 ------- 0 0.0 1.0 73 128
+ 0.653573 1 0 ack 40 ------- 0 1.0 0.0 73 165
- 0.653573 1 0 ack 40 ------- 0 1.0 0.0 73 165
- 0.654667 0 1 tcp 1040 ------- 0 0.0 1.0 76 134
r 0.65824 1 0 ack 40 ------- 0 1.0 0.0 72 163
+ 0.65824 0 1 tcp 1040 ------- 0 0.0 1.0 92 166
r 0.65912 0 1 tcp 1040 ------- 0 0.0 1.0 74 130
+ 0.65912 1 0 ack 40 ------- 0 1.0 0.0 74 167
- 0.65912 1 0 ack 40 ------- 0 1.0 0.0 74 167
- 0.660213 0 1 tcp 1040 ------- 0 0.0 1.0 77 136
r 0.663787 1 0 ack 40 ------- 0 1.0 0.0 73 165
+ 0.663787 0 1 tcp 1040 ------- 0 0.0 1.0 93 168
r 0.664667 0 1 tcp 1040 ------- 0 0.0 1.0 75 132
+ 0.664667 1 0 ack 40 ------- 0 1.0 0.0 75 169
- 0.664667 1 0 ack 40 ------- 0 1.0 0.0 75 169
- 0.66576 0 1 tcp 1040 ------- 0 0.0 1.0 78 138
r 0.669333 1 0 ack 40 ------- 0 1.0 0.0 74 167
+ 0.669333 0 1 tcp 1040 ------- 0 0.0 1.0 94 170
r 0.670213 0 1 tcp 1040 ------- 0 0.0 1.0 76 134
+ 0.670213 1 0 ack 40 ------- 0 1.0 0.0 76 171
- 0.670213 1 0 ack 40 ------- 0 1.0 0.0 76 171
- 0.671307 0 1 tcp 1040 ------- 0 0.0 1.0 79 140
r 0.67488 1 0 ack 40 ------- 0 1.0 0.0 75 169
+ 0.67488 0 1 tcp 1040 ------- 0 0.0 1.0 95 172
r 0.67576 0 1 tcp 1040 ------- 0 0.0 1.0 77 136
+ 0.67576 1 0 ack 40 ------- 0 1.0 0.0 77 173
- 0.67576 1 0 ack 40 ------- 0 1.0 0.0 77 173
- 0.676853 0 1 tcp 1040 ------- 0 0.0 1.0 80 142
r 0.680427 1 0 ack 40 ------- 0 1.0 0.0 76 171
+ 0.680427 0 1 tcp 1040 ------- 0 0.0 1.0 96 174
r 0.681307 0 1 tcp 1040 ------- 0 0.0 1.0 78 138
+ 0.681307 1 0 ack 40 ------- 0 1.0 0.0 78 175
- 0.681307 1 0 ack 40 ------- 0 1.0 0.0 78 175
- 0.6824 0 1 tcp 1040 ------- 0 0.0 1.0 81 144
r 0.685973 1 0 ack 40 ------- 0 1.0 0.0 77 173
+ 0.685973 0 1 tcp 1040 ------- 0 0.0 1.0 97 176
r 0.686853 0 1 tcp 1040 ------- 0 0.0 1.0 79 140
+ 0.686853 1 0 ack 40 ------- 0 1.0 0.0 79 177
- 0.686853 1 0 ack 40 ------- 0 1.0 0.0 79 177
- 0.687947 0 1 tcp 1040 ------- 0 0.0 1.0 82 146
r 0.69152 1 0 ack 40 ------- 0 1.0 0.0 78 175
+ 0.69152 0 1 tcp 1040 ------- 0 0.0 1.0 98 178
r 0.6924 0 1 tcp 1040 ------- 0 0.0 1.0 80 142
+ 0.6924 1 0 ack 40 ------- 0 1.0 0.0 80 179
- 0.6924 1 0 ack 40 ------- 0 1.0 0.0 80 179
- 0.693493 0 1 tcp 1040 ------- 0 0.0 1.0 83 148
r 0.697067 1 0 ack 40 ------- 0 1.0 0.0 79 177
+ 0.697067 0 1 tcp 1040 ------- 0 0.0 1.0 99 180
r 0.697947 0 1 tcp 1040 ------- 0 0.0 1.0 81 144
+ 0.697947 1 0 ack 40 ------- 0 1.0 0.0 81 181
- 0.697947 1 0 ack 40 ------- 0 1.0 0.0 81 181
- 0.69904 0 1 tcp 1040 ------- 0 0.0 1.0 84 150
r 0.702613 1 0 ack 40 ------- 0 1.0 0.0 80 179
+ 0.702613 0 1 tcp 1040 ------- 0 0.0 1.0 100 182
r 0.703493 0 1 tcp 1040 ------- 0 0.0 1.0 82 146
+ 0.703493 1 0 ack 40 ------- 0 1.0 0.0 82 183
- 0.703493 1 0 ack 40 ------- 0 1.0 0.0 82 183
- 0.704587 0 1 tcp 1040 ------- 0 0.0 1.0 85 152
r 0.70816 1 0 ack 40 ------- 0 1.0 0.0 81 181
+ 0.70816 0 1 tcp 1040 ------- 0 0.0 1.0 101 184
r 0.70904 0 1 tcp 1040 ------- 0 0.0 1.0 83 148
+ 0.70904 1 0 ack 40 ------- 0 1.0 0.0 83 185
- 0.70904 1 0 ack 40 ------- 0 1.0 0.0 83 185
- 0.710133 0 1 tcp 1040 ------- 0 0.0 1.0 86 154
r 0.713707 1 0 ack 40 ------- 0 1.0 0.0 82 183
+ 0.713707 0 1 tcp 1040 ------- 0 0.0 1.0 102 186
r 0.714587 0 1 tcp 1040 ------- 0 0.0 1.0 84 150
+ 0.714587 1 0 ack 40 ------- 0 1.0 0.0 84 187
- 0.714587 1 0 ack 40 ------- 0 1.0 0.0 84 187
- 0.71568 0 1 tcp 1040 ------- 0 0.0 1.0 87 156
r 0.719253 1 0 ack 40 ------- 0 1.0 0.0 83 185
+ 0.719253 0 1 tcp 1040 ------- 0 0.0 1.0 103 188
r 0.720133 0 1 tcp 1040 ------- 0 0.0 1.0 85 152
+ 0.720133 1 0 ack 40 ------- 0 1.0 0.0 85 189
- 0.720133 1 0 ack 40 ------- 0 1.0 0.0 85 189
- 0.721227 0 1 tcp 1040 ------- 0 0.0 1.0 88 158
r 0.7248 1 0 ack 40 ------- 0 1.0 0.0 84 187
+ 0.7248 0 1 tcp 1040 ------- 0 0.0 1.0 104 190
r 0.72568 0 1 tcp 1040 ------- 0 0.0 1.0 86 154
+ 0.72568 1 0 ack 40 ------- 0 1.0 0.0 86 191
- 0.72568 1 0 ack 40 ------- 0 1.0 0.0 86 191
- 0.726773 0 1 tcp 1040 ------- 0 0.0 1.0 89 160
r 0.730347 1 0 ack 40 ------- 0 1.0 0.0 85 189
+ 0.730347 0 1 tcp 1040 ------- 0 0.0 1.0 105 192
r 0.731227 0 1 tcp 1040 ------- 0 0.0 1.0 87 156
+ 0.731227 1 0 ack 40 ------- 0 1.0 0.0 87 193
- 0.731227 1 0 ack 40 ------- 0 1.0 0.0 87 193
- 0.73232 0 1 tcp 1040 ------- 0 0.0 1.0 90 162
r 0.735893 1 0 ack 40 ------- 0 1.0 0.0 86 191
+ 0.735893 0 1 tcp 1040 ------- 0 0.0 1.0 106 194
r 0.736773 0 1 tcp 1040 ------- 0 0.0 1.0 88 158
+ 0.736773 1 0 ack 40 ------- 0 1.0 0.0 88 195
- 0.736773 1 0 ack 40 ------- 0 1.0 0.0 88 195
- 0.737867 0 1 tcp 1040 ------- 0 0.0 1.0 91 164
r 0.74144 1 0 ack 40 ------- 0 1.0 0.0 87 193
+ 0.74144 0 1 tcp 1040 ------- 0 0.0 1.0 107 196
r 0.74232 0 1 tcp 1040 ------- 0 0.0 1.0 89 160
+ 0.74232 1 0 ack 40 ------- 0 1.0 0.0 89 197
- 0.74232 1 0 ack 40 ------- 0 1.0 0.0 89 197
- 0.743413 0 1 tcp 1040 ------- 0 0.0 1.0 92 166
r 0.746987 1 0 ack 40 ------- 0 1.0 0.0 88 195
+ 0.746987 0 1 tcp 1040 ------- 0 0.0 1.0 108 198
r 0.747867 0 1 tcp 1040 ------- 0 0.0 1.0 90 162
+ 0.747867 1 0 ack 40 ------- 0 1.0 0.0 90 199
- 0.747867 1 0 ack 40 ------- 0 1.0 0.0 90 199
- 0.74896 0 1 tcp 1040 ------- 0 0.0 1.0 93 168
r 0.752533 1 0 ack 40 ------- 0 1.0 0.0 89 197
+ 0.752533 0 1 tcp 1040 ------- 0 0.0 1.0 109 200
r 0.753413 0 1 tcp 1040 ------- 0 0.0 1.0 91 164
+ 0.753413 1 0 ack 40 ------- 0 1.0 0.0 91 201
- 0.753413 1 0 ack 40 ------- 0 1.0 0.0 91 201
- 0.754507 0 1 tcp 1040 ------- 0 0.0 1.0 94 170
r 0.75808 1 0 ack 40 ------- 0 1.0 0.0 90 199
+ 0.75808 0 1 tcp 1040 ------- 0 0.0 1.0 110 202
r 0.75896 0 1 tcp 1040 ------- 0 0.0 1.0 92 166
+ 0.75896 1 0 ack 40 ------- 0 1.0 0.0 92 203
- 0.75896 1 0 ack 40 ------- 0 1.0 0.0 92 203
- 0.760053 0 1 tcp 1040 ------- 0 0.0 1.0 95 172
r 0.763627 1 0 ack 40 ------- 0 1.0 0.0 91 201
+ 0.763627 0 1 tcp 1040 ------- 0 0.0 1.0 111 204
r 0.764507 0 1 tcp 1040 ------- 0 0.0 1.0 93 168
+ 0.764507 1 0 ack 40 ------- 0 1.0 0.0 93 205
- 0.764507 1 0 ack 40 ------- 0 1.0 0.0 93 205
- 0.7656 0 1 tcp 1040 ------- 0 0.0 1.0 96 174
r 0.769173 1 0 ack 40 ------- 0 1.0 0.0 92 203
+ 0.769173 0 1 tcp 1040 ------- 0 0.0 1.0 112 206
r 0.770053 0 1 tcp 1040 ------- 0 0.0 1.0 94 170
+ 0.770053 1 0 ack 40 ------- 0 1.0 0.0 94 207
- 0.770053 1 0 ack 40 ------- 0 1.0 0.0 94 207
- 0.771147 0 1 tcp 1040 ------- 0 0.0 1.0 97 176
r 0.77472 1 0 ack 40 ------- 0 1.0 0.0 93 205
+ 0.77472 0 1 tcp 1040 ------- 0 0.0 1.0 113 208
r 0.7756 0 1 tcp 1040 ------- 0 0.0 1.0 95 172
+ 0.7756 1 0 ack 40 ------- 0 1.0 0.0 95 209
- 0.7756 1 0 ack 40 ------- 0 1.0 0.0 95 209
- 0.776693 0 1 tcp 1040 ------- 0 0.0 1.0 98 178
r 0.780267 1 0 ack 40 ------- 0 1.0 0.0 94 207
+ 0.780267 0 1 tcp 1040 ------- 0 0.0 1.0 114 210
r 0.781147 0 1 tcp 1040 ------- 0 0.0 1.0 96 174
+ 0.781147 1 0 ack 40 ------- 0 1.0 0.0 96 211
- 0.781147 1 0 ack 40 ------- 0 1.0 0.0 96 211
- 0.78224 0 1 tcp 1040 ------- 0 0.0 1.0 99 180
r 0.785813 1 0 ack 40 ------- 0 1.0 0.0 95 209
+ 0.785813 0 1 tcp 1040 ------- 0 0.0 1.0 115 212
r 0.786693 0 1 tcp 1040 ------- 0 0.0 1.0 97 176
+ 0.786693 1 0 ack 40 ------- 0 1.0 0.0 97 213
- 0.786693 1 0 ack 40 ------- 0 1.0 0.0 97 213
- 0.787787 0 1 tcp 1040 ------- 0 0.0 1.0 100 182
r 0.79136 1 0 ack 40 ------- 0 1.0 0.0 96 211
+ 0.79136 0 1 tcp 1040 ------- 0 0.0 1.0 116 214
r 0.79224 0 1 tcp 1040 ------- 0 0.0 1.0 98 178
+ 0.79224 1 0 ack 40 ------- 0 1.0 0.0 98 215
- 0.79224 1 0 ack 40 ------- 0 1.0 0.0 98 215
- 0.793333 0 1 tcp 1040 ------- 0 0.0 1.0 101 184
r 0.796907 1 0 ack 40 ------- 0 1.0 0.0 97 213
+ 0.796907 0 1 tcp 1040 ------- 0 0.0 1.0 117 216
r 0.797787 0 1 tcp 1040 ------- 0 0.0 1.0 99 180
+ 0.797787 1 0 ack 40 ------- 0 1.0 0.0 99 217
- 0.797787 1 0 ack 40 ------- 0 1.0 0.0 99 217
- 0.79888 0 1 tcp 1040 ------- 0 0.0 1.0 102 186
r 0.802453 1 0 ack 40 ------- 0 1.0 0.0 98 215
+ 0.802453 0 1 tcp 1040 ------- 0 0.0 1.0 118 218
r 0.803333 0 1 tcp 1040 ------- 0 0.0 1.0 100 182
+ 0.803333 1 0 ack 40 ------- 0 1.0 0.0 100 219
- 0.803333 1 0 ack 40 ------- 0 1.0 0.0 100 219
- 0.804427 0 1 tcp 1040 ------- 0 0.0 1.0 103 188
r 0.808 1 0 ack 40 ------- 0 1.0 0.0 99 217
+ 0.808 0 1 tcp 1040 ------- 0 0.0 1.0 119 220
r 0.80888 0 1 tcp 1040 ------- 0 0.0 1.0 101 184
+ 0.80888 1 0 ack 40 ------- 0 1.0 0.0 101 221
- 0.80888 1 0 ack 40 ------- 0 1.0 0.0 101 221
- 0.809973 0 1 tcp 1040 ------- 0 0.0 1.0 104 190
r 0.813547 1 0 ack 40 ------- 0 1.0 0.0 100 219
+ 0.813547 0 1 tcp 1040 ------- 0 0.0 1.0 120 222
r 0.814427 0 1 tcp 1040 ------- 0 0.0 1.0 102 186
+ 0.814427 1 0 ack 40 ------- 0 1.0 0.0 102 223
- 0.814427 1 0 ack 40 ------- 0 1.0 0.0 102 223
- 0.81552 0 1 tcp 1040 ------- 0 0.0 1.0 105 192