V -t * -v 1.0a5 -a 0
A -t * -n 1 -p 0 -o 0x7fffffff -c 30 -a 1
A -t * -h 1 -m 1073741823 -s 0
n -t * -a 0 -s 0 -S UP -v circle -c black -i black
n -t * -a 1 -s 1 -S UP -v circle -c black -i black
l -t * -s 0 -d 1 -S UP -r 1500000 -D 0.01 -c black
+ -t 0.2 -s 0 -d 1 -p tcp -e 40 -c 0 -i 0 -a 0 -x {0.0 1.0 0 ------- null}
- -t 0.2 -s 0 -d 1 -p tcp -e 40 -c 0 -i 0 -a 0 -x {0.0 1.0 0 ------- null}
h -t 0.2 -s 0 -d 1 -p tcp -e 40 -c 0 -i 0 -a 0 -x {0.0 1.0 -1 ------- null}
r -t 0.210213333333333 -s 0 -d 1 -p tcp -e 40 -c 0 -i 0 -a 0 -x {0.0 1.0 0 ------- null}
+ -t 0.210213333333333 -s 1 -d 0 -p ack -e 40 -c 0 -i 1 -a 0 -x {1.0 0.0 0 ------- null}
- -t 0.210213333333333 -s 1 -d 0 -p ack -e 40 -c 0 -i 1 -a 0 -x {1.0 0.0 0 ------- null}
h -t 0.210213333333333 -s 1 -d 0 -p ack -e 40 -c 0 -i 1 -a 0 -x {1.0 0.0 -1 ------- null}
r -t 0.220426666666667 -s 1 -d 0 -p ack -e 40 -c 0 -i 1 -a 0 -x {1.0 0.0 0 ------- null}
+ -t 0.220426666666667 -s 0 -d 1 -p tcp -e 1040 -c 0 -i 2 -a 0 -x {0.0 1.0 1 ------- null}
- -t 0.220426666666667 -s 0 -d 1 -p tcp -e 1040 -c 0 -i 2 -a 0 -x {0.0 1.0 1 ------- null}
h -t 0.220426666666667 -s 0 -d 1 -p tcp -e 1040 -c 0 -i 2 -a 0 -x {0.0 1.0 -1 ------- null}
+ -t 0.220426666666667 -s 0 -d 1 -p tcp -e 1040 -c 0 -i 3 -a 0 -x {0.0 1.0 2 ------- null}
- -t 0.225973333333333 -s 0 -d 1 -p tcp -e 1040 -c 0 -i 3 -a 0 -x {0.0 1.0 2 ------- null}
h -t 0.225973333333333 -s 0 -d 1 -p tcp -e 1040 -c 0 -i 3 -a 0 -x {0.0 1.0 -1 ------- null}
r -t 0.235973333333333 -s 0 -d 1 -p tcp -e 1040 -c 0 -i 2 -a 0 -x {0.0 1.0 1 ------- null}
+ -t 0.235973333333333 -s 1 -d 0 -p ack -e 40 -c 0 -i 4 -a 0 -x {1.0 0.0 1 ------- null}
- -t 0.235973333333333 -s 1 -d 0 -p ack -e 40 -c 0 -i 4 -a 0 -x {1.0 0.0 1 ------- null}
h -t 0.235973333333333 -s 1 -d 0 -p ack -e 40 -c 0 -i 4 -a 0 -x {1.0 0.0 -1 ------- null}
r -t 0.24152 -s 0 -d 1 -p tcp -e 1040 -c 0 -i 3 -a 0 -x {0.0 1.0 2 ------- null}
+ -t 0.24152 -s 1 -d 0 -p ack -e 40 -c 0 -i 5 -a 0 -x {1.0 0.0 2 ------- null}
- -t 0.24152 -s 1 -d 0 -p ack -e 40 -c 0 -i 5 -a 0 -x {1.0 0.0 2 ------- null}
h -t 0.24152 -s 1 -d 0 -p ack -e 40 -c 0 -i 5 -a 0 -x {1.0 0.0 -1 ------- null}
r -t 0.246186666666667 -s 1 -d 0 -p ack -e 40 -c 0 -i 4 -a 0 -x {1.0 0.0 1 ------- null}
+ -t 0.246186666666667 -s 0 -d 1 -p tcp -e 1040 -c 0 -i 6 -a 0 -x {0.0 1.0 3 ------- null}
- -t 0.246186666666667 -s 0 -d 1 -p tcp -e 1040 -c 0 -i 6 -a 0 -x {0.0 1.0 3 ------- null}
h -t 0.246186666666667 -s 0 -d 1 -p tcp -e 1040 -c 0 -i 6 -a 0 -x {0.0 1.0 -1 ------- null}
+ -t 0.246186666666667 -s 0 -d 1 -p tcp -e 1040 -c 0 -i 7 -a 0 -x {0.0 1.0 4 ------- null}
- -t 0.251733333333333 -s 0 -d 1 -p tcp -e 1040 -c 0 -i 7 -a 0 -x {0.0 1.0 4 ------- null}
h -t 0.251733333333333 -s 0 -d 1 -p tcp -e 1040 -c 0 -i 7 -a 0 -x {0.0 1.0 -1 ------- null}
r -t 0.251733333333333 -s 1 -d 0 -p ack -e 40 -c 0 -i 5 -a 0 -x {1.0 0.0 2 ------- null}
+ -t 0.251733333333333 -s 0 -d 1 -p tcp -e 1040 -c 0 -i 8 -a 0 -x {0.0 1.0 5 ------- null}
+ -t 0.251733333333333 -s 0 -d 1 -p tcp -e 1040 -c 0 -i 9 -a 0 -x {0.0 1.0 6 ------- null}
- -t 0.25728 -s 0 -d 1 -p tcp -e 1040 -c 0 -i 8 -a 0 -x {0.0 1.0 5 ------- null}
h -t 0.25728 -s 0 -d 1 -p tcp -e 1040 -c 0 -i 8 -a 0 -x {0.0 1.0 -1 ------- null}
r -t 0.261733333333333 -s 0 -d 1 -p tcp -e 1040 -c 0 -i 6 -a 0 -x {0.0 1.0 3 ------- null}
+ -t 0.261733333333333 -s 1 -d 0 -p ack -e 40 -c 0 -i 10 -a 0 -x {1.0 0.0 3 ------- null}
- -t 0.261733333333333 -s 1 -d 0 -p ack -e 40 -c 0 -i 10 -a 0 -x {1.0 0.0 3 ------- null}
h -t 0.261733333333333 -s 1 -d 0 -p ack -e 40 -c 0 -i 10 -a 0 -x {1.0 0.0 -1 ------- null}
- -t 0.262826666666667 -s 0 -d 1 -p tcp -e 1040 -c 0 -i 9 -a 0 -x {0.0 1.0 6 ------- null}
h -t 0.262826666666667 -s 0 -d 1 -p tcp -e 1040 -c 0 -i 9 -a 0 -x {0.0 1.0 -1 ------- null}
r -t 0.26728 -s 0 -d 1 -p tcp -e 1040 -c 0 -i 7 -a 0 -x {0.0 1.0 4 ------- null}
+ -t 0.26728 -s 1 -d 0 -p ack -e 40 -c 0 -i 11 -a 0 -x {1.0 0.0 4 ------- null}
- -t 0.26728 -s 1 -d 0 -p ack -e 40 -c 0 -i 11 -a 0 -x {1.0 0.0 4 ------- null}
h -t 0.26728 -s 1 -d 0 -p ack -e 40 -c 0 -i 11 -a 0 -x {1.0 0.0 -1 ------- null}
r -t 0.271946666666667 -s 1 -d 0 -p ack -e 40 -c 0 -i 10 -a 0 -x {1.0 0.0 3 ------- null}
+ -t 0.271946666666667 -s 0 -d 1 -p tcp -e 1040 -c 0 -i 12 -a 0 -x {0.0 1.0 7 ------- null}
- -t 0.271946666666667 -s 0 -d 1 -p tcp -e 1040 -c 0 -i 12 -a 0 -x {0.0 1.0 7 ------- null}
h -t 0.271946666666667 -s 0 -d 1 -p tcp -e 1040 -c 0 -i 12 -a 0 -x {0.0 1.0 -1 ------- null}
+ -t 0.271946666666667 -s 0 -d 1 -p tcp -e 1040 -c 0 -i 13 -a 0 -x {0.0 1.0 8 ------- null}
r -t 0.272826666666667 -s 0 -d 1 -p tcp -e 1040 -c 0 -i 8 -a 0 -x {0.0 1.0 5 ------- null}
+ -t 0.272826666666667 -s 1 -d 0 -p ack -e 40 -c 0 -i 14 -a 0 -x {1.0 0.0 5 ------- null}
- -t 0.272826666666667 -s 1 -d 0 -p ack -e 40 -c 0 -i 14 -a 0 -x {1.0 0.0 5 ------- null}
h -t 0.272826666666667 -s 1 -d 0 -p ack -e 40 -c 0 -i 14 -a 0 -x {1.0 0.0 -1 ------- null}
r -t 0.277493333333333 -s 1 -d 0 -p ack -e 40 -c 0 -i 11 -a 0 -x {1.0 0.0 4 ------- null}
+ -t 0.277493333333333 -s 0 -d 1 -p tcp -e 1040 -c 0 -i 15 -a 0 -x {0.0 1.0 9 ------- null}
+ -t 0.277493333333333 -s 0 -d 1 -p tcp -e 1040 -c 0 -i 16 -a 0 -x {0.0 1.0 10 ------- null}
- -t 0.277493333333333 -s 0 -d 1 -p tcp -e 1040 -c 0 -i 13 -a 0 -x {0.0 1.0 8 ------- null}
h -t 0.277493333333333 -s 0 -d 1 -p tcp -e 1040 -c 0 -i 13 -a 0 -x {0.0 1.0 -1 ------- null}
r -t 0.278373333333333 -s 0 -d 1 -p tcp -e 1040 -c 0 -i 9 -a 0 -x {0.0 1.0 6 ------- null}
+ -t 0.278373333333333 -s 1 -d 0 -p ack -e 40 -c 0 -i 17 -a 0 -x {1.0 0.0 6 ------- null}
- -t 0.278373333333333 -s 1 -d 0 -p ack -e 40 -c 0 -i 17 -a 0 -x {1.0 0.0 6 ------- null}
h -t 0.278373333333333 -s 1 -d 0 -p ack -e 40 -c 0 -i 17 -a 0 -x {1.0 0.0 -1 ------- null}
r -t 0.28304 -s 1 -d 0 -p ack -e 40 -c 0 -i 14 -a 0 -x {1.0 0.0 5 ------- null}
+ -t 0.28304 -s 0 -d 1 -p tcp -e 1040 -c 0 -i 18 -a 0 -x {0.0 1.0 11 ------- null}
+ -t 0.28304 -s 0 -d 1 -p tcp -e 1040 -c 0 -i 19 -a 0 -x {0.0 1.0 12 ------- null}
- -t 0.28304 -s 0 -d 1 -p tcp -e 1040 -c 0 -i 15 -a 0 -x {0.0 1.0 9 ------- null}
h -t 0.28304 -s 0 -d 1 -p tcp -e 1040 -c 0 -i 15 -a 0 -x {0.0 1.0 -1 ------- null}
r -t 0.287493333333333 -s 0 -d 1 -p tcp -e 1040 -c 0 -i 12 -a 0 -x {0.0 1.0 7 ------- null}
+ -t 0.287493333333333 -s 1 -d 0 -p ack -e 40 -c 0 -i 20 -a 0 -x {1.0 0.0 7 ------- null}
- -t 0.287493333333333 -s 1 -d 0 -p ack -e 40 -c 0 -i 20 -a 0 -x {1.0 0.0 7 ------- null}
h -t 0.287493333333333 -s 1 -d 0 -p ack -e 40 -c 0 -i 20 -a 0 -x {1.0 0.0 -1 ------- null}
r -t 0.288586666666667 -s 1 -d 0 -p ack -e 40 -c 0 -i 17 -a 0 -x {1.0 0.0 6 ------- null}
+ -t 0.288586666666667 -s 0 -d 1 -p tcp -e 1040 -c 0 -i 21 -a 0 -x {0.0 1.0 13 ------- null}
+ -t 0.288586666666667 -s 0 -d 1 -p tcp -e 1040 -c 0 -i 22 -a 0 -x {0.0 1.0 14 ------- null}
- -t 0.288586666666667 -s 0 -d 1 -p tcp -e 1040 -c 0 -i 16 -a 0 -x {0.0 1.0 10 ------- null}
h -t 0.288586666666667 -s 0 -d 1 -p tcp -e 1040 -c 0 -i 16 -a 0 -x {0.0 1.0 -1 ------- null}
r -t 0.29304 -s 0 -d 1 -p tcp -e 1040 -c 0 -i 13 -a 0 -x {0.0 1.0 8 ------- null}
+ -t 0.29304 -s 1 -d 0 -p ack -e 40 -c 0 -i 23 -a 0 -x {1.0 0.0 8 ------- null}
- -t 0.29304 -s 1 -d 0 -p ack -e 40 -c 0 -i 23 -a 0 -x {1.0 0.0 8 ------- null}
h -t 0.29304 -s 1 -d 0 -p ack -e 40 -c 0 -i 23 -a 0 -x {1.0 0.0 -1 ------- null}
- -t 0.294133333333333 -s 0 -d 1 -p tcp -e 1040 -c 0 -i 18 -a 0 -x {0.0 1.0 11 ------- null}
h -t 0.294133333333333 -s 0 -d 1 -p tcp -e 1040 -c 0 -i 18 -a 0 -x {0.0 1.0 -1 ------- null}
r -t 0.297706666666667 -s 1 -d 0 -p ack -e 40 -c 0 -i 20 -a 0 -x {1.0 0.0 7 ------- null}
+ -t 0.297706666666667 -s 0 -d 1 -p tcp -e 1040 -c 0 -i 24 -a 0 -x {0.0 1.0 15 ------- null}
+ -t 0.297706666666667 -s 0 -d 1 -p tcp -e 1040 -c 0 -i 25 -a 0 -x {0.0 1.0 16 ------- null}
r -t 0.298586666666667 -s 0 -d 1 -p tcp -e 1040 -c 0 -i 15 -a 0 -x {0.0 1.0 9 ------- null}
+ -t 0.298586666666667 -s 1 -d 0 -p ack -e 40 -c 0 -i 26 -a 0 -x {1.0 0.0 9 ------- null}
- -t 0.298586666666667 -s 1 -d 0 -p ack -e 40 -c 0 -i 26 -a 0 -x {1.0 0.0 9 ------- null}
h -t 0.298586666666667 -s 1 -d 0 -p ack -e 40 -c 0 -i 26 -a 0 -x {1.0 0.0 -1 ------- null}
- -t 0.29968 -s 0 -d 1 -p tcp -e 1040 -c 0 -i 19 -a 0 -x {0.0 1.0 12 ------- null}
h -t 0.29968 -s 0 -d 1 -p tcp -e 1040 -c 0 -i 19 -a 0 -x {0.0 1.0 -1 ------- null}
r -t 0.303253333333333 -s 1 -d 0 -p ack -e 40 -c 0 -i 23 -a 0 -x {1.0 0.0 8 ------- null}
+ -t 0.303253333333333 -s 0 -d 1 -p tcp -e 1040 -c 0 -i 27 -a 0 -x {0.0 1.0 17 ------- null}
+ -t 0.303253333333333 -s 0 -d 1 -p tcp -e 1040 -c 0 -i 28 -a 0 -x {0.0 1.0 18 ------- null}
r -t 0.304133333333333 -s 0 -d 1 -p tcp -e 1040 -c 0 -i 16 -a 0 -x {0.0 1.0 10 ------- null}
+ -t 0.304133333333333 -s 1 -d 0 -p ack -e 40 -c 0 -i 29 -a 0 -x {1.0 0.0 10 ------- null}
- -t 0.304133333333333 -s 1 -d 0 -p ack -e 40 -c 0 -i 29 -a 0 -x {1.0 0.0 10 ------- null}
h -t 0.304133333333333 -s 1 -d 0 -p ack -e 40 -c 0 -i 29 -a 0 -x {1.0 0.0 -1 ------- null}
- -t 0.305226666666667 -s 0 -d 1 -p tcp -e 1040 -c 0 -i 21 -a 0 -x {0.0 1.0 13 ------- null}
h -t 0.305226666666667 -s 0 -d 1 -p tcp -e 1040 -c 0 -i 21 -a 0 -x {0.0 1.0 -1 ------- null}
r -t 0.3088 -s 1 -d 0 -p ack -e 40 -c 0 -i 26 -a 0 -x {1.0 0.0 9 ------- null}
+ -t 0.3088 -s 0 -d 1 -p tcp -e 1040 -c 0 -i 30 -a 0 -x {0.0 1.0 19 ------- null}
+ -t 0.3088 -s 0 -d 1 -p tcp -e 1040 -c 0 -i 31 -a 0 -x {0.0 1.0 20 ------- null}
r -t 0.30968 -s 0 -d 1 -p tcp -e 1040 -c 0 -i 18 -a 0 -x {0.0 1.0 11 ------- null}
+ -t 0.30968 -s 1 -d 0 -p ack -e 40 -c 0 -i 32 -a 0 -x {1.0 0.0 11 ------- null}
- -t 0.30968 -s 1 -d 0 -p ack -e 40 -c 0 -i 32 -a 0 -x {1.0 0.0 11 ------- null}
h -t 0.30968 -s 1 -d 0 -p ack -e 40 -c 0 -i 32 -a 0 -x {1.0 0.0 -1 ------- null}
- -t 0.310773333333333 -s 0 -d 1 -p tcp -e 1040 -c 0 -i 22 -a 0 -x {0.0 1.0 14 ------- null}
h -t 0.310773333333333 -s 0 -d 1 -p tcp -e 1040 -c 0 -i 22 -a 0 -x {0.0 1.0 -1 ------- null}
r -t 0.314346666666667 -s 1 -d 0 -p ack -e 40 -c 0 -i 29 -a 0 -x {1.0 0.0 10 ------- null}
+ -t 0.314346666666667 -s 0 -d 1 -p tcp -e 1040 -c 0 -i 33 -a 0 -x {0.0 1.0 21 ------- null}
+ -t 0.314346666666667 -s 0 -d 1 -p tcp -e 1040 -c 0 -i 34 -a 0 -x {0.0 1.0 22 ------- null}
r -t 0.315226666666667 -s 0 -d 1 -p tcp -e 1040 -c 0 -i 19 -a 0 -x {0.0 1.0 12 ------- null}
+ -t 0.315226666666667 -s 1 -d 0 -p ack -e 40 -c 0 -i 35 -a 0 -x {1.0 0.0 12 ------- null}
- -t 0.315226666666667 -s 1 -d 0 -p ack -e 40 -c 0 -i 35 -a 0 -x {1.0 0.0 12 ------- null}
h -t 0.315226666666667 -s 1 -d 0 -p ack -e 40 -c 0 -i 35 -a 0 -x {1.0 0.0 -1 ------- null}
- -t 0.31632 -s 0 -d 1 -p tcp -e 1040 -c 0 -i 24 -a 0 -x {0.0 1.0 15 ------- null}
h -t 0.31632 -s 0 -d 1 -p tcp -e 1040 -c 0 -i 24 -a 0 -x {0.0 1.0 -1 ------- null}
r -t 0.319893333333333 -s 1 -d 0 -p ack -e 40 -c 0 -i 32 -a 0 -x {1.0 0.0 11 ------- null}
+ -t 0.319893333333333 -s 0 -d 1 -p tcp -e 1040 -c 0 -i 36 -a 0 -x {0.0 1.0 23 ------- null}
+ -t 0.319893333333333 -s 0 -d 1 -p tcp -e 1040 -c 0 -i 37 -a 0 -x {0.0 1.0 24 ------- null}
r -t 0.320773333333333 -s 0 -d 1 -p tcp -e 1040 -c 0 -i 21 -a 0 -x {0.0 1.0 13 ------- null}
+ -t 0.320773333333333 -s 1 -d 0 -p ack -e 40 -c 0 -i 38 -a 0 -x {1.0 0.0 13 ------- null}
- -t 0.320773333333333 -s 1 -d 0 -p ack -e 40 -c 0 -i 38 -a 0 -x {1.0 0.0 13 ------- null}
h -t 0.320773333333333 -s 1 -d 0 -p ack -e 40 -c 0 -i 38 -a 0 -x {1.0 0.0 -1 ------- null}
- -t 0.321866666666666 -s 0 -d 1 -p tcp -e 1040 -c 0 -i 25 -a 0 -x {0.0 1.0 16 ------- null}
h -t 0.321866666666666 -s 0 -d 1 -p tcp -e 1040 -c 0 -i 25 -a 0 -x {0.0 1.0 -1 ------- null}
r -t 0.32544 -s 1 -d 0 -p ack -e 40 -c 0 -i 35 -a 0 -x {1.0 0.0 12 ------- null}
+ -t 0.32544 -s 0 -d 1 -p tcp -e 1040 -c 0 -i 39 -a 0 -x {0.0 1.0 25 ------- null}
+ -t 0.32544 -s 0 -d 1 -p tcp -e 1040 -c 0 -i 40 -a 0 -x {0.0 1.0 26 ------- null}
r -t 0.32632 -s 0 -d 1 -p tcp -e 1040 -c 0 -i 22 -a 0 -x {0.0 1.0 14 ------- null}
+ -t 0.32632 -s 1 -d 0 -p ack -e 40 -c 0 -i 41 -a 0 -x {1.0 0.0 14 ------- null}
- -t 0.32632 -s 1 -d 0 -p ack -e 40 -c 0 -i 41 -a 0 -x {1.0 0.0 14 ------- null}
h -t 0.32632 -s 1 -d 0 -p ack -e 40 -c 0 -i 41 -a 0 -x {1.0 0.0 -1 ------- null}
- -t 0.327413333333333 -s 0 -d 1 -p tcp -e 1040 -c 0 -i 27 -a 0 -x {0.0 1.0 17 ------- null}
h -t 0.327413333333333 -s 0 -d 1 -p tcp -e 1040 -c 0 -i 27 -a 0 -x {0.0 1.0 -1 ------- null}
r -t 0.330986666666667 -s 1 -d 0 -p ack -e 40 -c 0 -i 38 -a 0 -x {1.0 0.0 13 ------- null}
+ -t 0.330986666666667 -s 0 -d 1 -p tcp -e 1040 -c 0 -i 42 -a 0 -x {0.0 1.0 27 ------- null}
+ -t 0.330986666666667 -s 0 -d 1 -p tcp -e 1040 -c 0 -i 43 -a 0 -x {0.0 1.0 28 ------- null}
r -t 0.331866666666666 -s 0 -d 1 -p tcp -e 1040 -c 0 -i 24 -a 0 -x {0.0 1.0 15 ------- null}
+ -t 0.331866666666666 -s 1 -d 0 -p ack -e 40 -c 0 -i 44 -a 0 -x {1.0 0.0 15 ------- null}
- -t 0.331866666666666 -s 1 -d 0 -p ack -e 40 -c 0 -i 44 -a 0 -x {1.0 0.0 15 ------- null}
h -t 0.331866666666666 -s 1 -d 0 -p ack -e 40 -c 0 -i 44 -a 0 -x {1.0 0.0 -1 ------- null}
- -t 0.33296 -s 0 -d 1 -p tcp -e 1040 -c 0 -i 28 -a 0 -x {0.0 1.0 18 ------- null}
h -t 0.33296 -s 0 -d 1 -p tcp -e 1040 -c 0 -i 28 -a 0 -x {0.0 1.0 -1 ------- null}
r -t 0.336533333333333 -s 1 -d 0 -p ack -e 40 -c 0 -i 41 -a 0 -x {1.0 0.0 14 ------- null}
+ -t 0.336533333333333 -s 0 -d 1 -p tcp -e 1040 -c 0 -i 45 -a 0 -x {0.0 1.0 29 ------- null}
+ -t 0.336533333333333 -s 0 -d 1 -p tcp -e 1040 -c 0 -i 46 -a 0 -x {0.0 1.0 30 ------- null}
r -t 0.337413333333333 -s 0 -d 1 -p tcp -e 1040 -c 0 -i 25 -a 0 -x {0.0 1.0 16 ------- null}
+ -t 0.337413333333333 -s 1 -d 0 -p ack -e 40 -c 0 -i 47 -a 0 -x {1.0 0.0 16 ------- null}
- -t 0.337413333333333 -s 1 -d 0 -p ack -e 40 -c 0 -i 47 -a 0 -x {1.0 0.0 16 ------- null}
h -t 0.337413333333333 -s 1 -d 0 -p ack -e 40 -c 0 -i 47 -a 0 -x {1.0 0.0 -1 ------- null}
- -t 0.338506666666666 -s 0 -d 1 -p tcp -e 1040 -c 0 -i 30 -a 0 -x {0.0 1.0 19 ------- null}
h -t 0.338506666666666 -s 0 -d 1 -p tcp -e 1040 -c 0 -i 30 -a 0 -x {0.0 1.0 -1 ------- null}
r -t 0.34208 -s 1 -d 0 -p ack -e 40 -c 0 -i 44 -a 0 -x {1.0 0.0 15 ------- null}
+ -t 0.34208 -s 0 -d 1 -p tcp -e 1040 -c 0 -i 48 -a 0 -x {0.0 1.0 31 ------- null}
+ -t 0.34208 -s 0 -d 1 -p tcp -e 1040 -c 0 -i 49 -a 0 -x {0.0 1.0 32 ------- null}
r -t 0.34296 -s 0 -d 1 -p tcp -e 1040 -c 0 -i 27 -a 0 -x {0.0 1.0 17 ------- null}
+ -t 0.34296 -s 1 -d 0 -p ack -e 40 -c 0 -i 50 -a 0 -x {1.0 0.0 17 ------- null}
- -t 0.34296 -s 1 -d 0 -p ack -e 40 -c 0 -i 50 -a 0 -x {1.0 0.0 17 ------- null}
h -t 0.34296 -s 1 -d 0 -p ack -e 40 -c 0 -i 50 -a 0 -x {1.0 0.0 -1 ------- null}
- -t 0.344053333333333 -s 0 -d 1 -p tcp -e 1040 -c 0 -i 31 -a 0 -x {0.0 1.0 20 ------- null}
h -t 0.344053333333333 -s 0 -d 1 -p tcp -e 1040 -c 0 -i 31 -a 0 -x {0.0 1.0 -1 ------- null}
r -t 0.347626666666666 -s 1 -d 0 -p ack -e 40 -c 0 -i 47 -a 0 -x {1.0 0.0 16 ------- null}
+ -t 0.347626666666666 -s 0 -d 1 -p tcp -e 1040 -c 0 -i 51 -a 0 -x {0.0 1.0 33 ------- null}
+ -t 0.347626666666666 -s 0 -d 1 -p tcp -e 1040 -c 0 -i 52 -a 0 -x {0.0 1.0 34 ------- null}
r -t 0.348506666666666 -s 0 -d 1 -p tcp -e 1040 -c 0 -i 28 -a 0 -x {0.0 1.0 18 ------- null}
+ -t 0.348506666666666 -s 1 -d 0 -p ack -e 40 -c 0 -i 53 -a 0 -x {1.0 0.0 18 ------- null}
- -t 0.348506666666666 -s 1 -d 0 -p ack -e 40 -c 0 -i 53 -a 0 -x {1.0 0.0 18 ------- null}
h -t 0.348506666666666 -s 1 -d 0 -p ack -e 40 -c 0 -i 53 -a 0 -x {1.0 0.0 -1 ------- null}
- -t 0.3496 -s 0 -d 1 -p tcp -e 1040 -c 0 -i 33 -a 0 -x {0.0 1.0 21 ------- null}
h -t 0.3496 -s 0 -d 1 -p tcp -e 1040 -c 0 -i 33 -a 0 -x {0.0 1.0 -1 ------- null}
r -t 0.353173333333333 -s 1 -d 0 -p ack -e 40 -c 0 -i 50 -a 0 -x {1.0 0.0 17 ------- null}
+ -t 0.353173333333333 -s 0 -d 1 -p tcp -e 1040 -c 0 -i 54 -a 0 -x {0.0 1.0 35 ------- null}
+ -t 0.353173333333333 -s 0 -d 1 -p tcp -e 1040 -c 0 -i 55 -a 0 -x {0.0 1.0 36 ------- null}
r -t 0.354053333333333 -s 0 -d 1 -p tcp -e 1040 -c 0 -i 30 -a 0 -x {0.0 1.0 19 ------- null}
+ -t 0.354053333333333 -s 1 -d 0 -p ack -e 40 -c 0 -i 56 -a 0 -x {1.0 0.0 19 ------- null}
- -t 0.354053333333333 -s 1 -d 0 -p ack -e 40 -c 0 -i 56 -a 0 -x {1.0 0.0 19 ------- null}
h -t 0.354053333333333 -s 1 -d 0 -p ack -e 40 -c 0 -i 56 -a 0 -x {1.0 0.0 -1 ------- null}
- -t 0.355146666666666 -s 0 -d 1 -p tcp -e 1040 -c 0 -i 34 -a 0 -x {0.0 1.0 22 ------- null}
h -t 0.355146666666666 -s 0 -d 1 -p tcp -e 1040 -c 0 -i 34 -a 0 -x {0.0 1.0 -1 ------- null}
r -t 0.35872 -s 1 -d 0 -p ack -e 40 -c 0 -i 53 -a 0 -x {1.0 0.0 18 ------- null}
+ -t 0.35872 -s 0 -d 1 -p tcp -e 1040 -c 0 -i 57 -a 0 -x {0.0 1.0 37 ------- null}
+ -t 0.35872 -s 0 -d 1 -p tcp -e 1040 -c 0 -i 58 -a 0 -x {0.0 1.0 38 ------- null}
r -t 0.3596 -s 0 -d 1 -p tcp -e 1040 -c 0 -i 31 -a 0 -x {0.0 1.0 20 ------- null}
+ -t 0.3596 -s 1 -d 0 -p ack -e 40 -c 0 -i 59 -a 0 -x {1.0 0.0 20 ------- null}
- -t 0.3596 -s 1 -d 0 -p ack -e 40 -c 0 -i 59 -a 0 -x {1.0 0.0 20 ------- null}
h -t 0.3596 -s 1 -d 0 -p ack -e 40 -c 0 -i 59 -a 0 -x {1.0 0.0 -1 ------- null}
- -t 0.360693333333333 -s 0 -d 1 -p tcp -e 1040 -c 0 -i 36 -a 0 -x {0.0 1.0 23 ------- null}
h -t 0.360693333333333 -s 0 -d 1 -p tcp -e 1040 -c 0 -i 36 -a 0 -x {0.0 1.0 -1 ------- null}
r -t 0.364266666666666 -s 1 -d 0 -p ack -e 40 -c 0 -i 56 -a 0 -x {1.0 0.0 19 ------- null}
+ -t 0.364266666666666 -s 0 -d 1 -p tcp -e 1040 -c 0 -i 60 -a 0 -x {0.0 1.0 39 ------- null}
r -t 0.365146666666666 -s 0 -d 1 -p tcp -e 1040 -c 0 -i 33 -a 0 -x {0.0 1.0 21 ------- null}
+ -t 0.365146666666666 -s 1 -d 0 -p ack -e 40 -c 0 -i 61 -a 0 -x {1.0 0.0 21 ------- null}
- -t 0.365146666666666 -s 1 -d 0 -p ack -e 40 -c 0 -i 61 -a 0 -x {1.0 0.0 21 ------- null}
h -t 0.365146666666666 -s 1 -d 0 -p ack -e 40 -c 0 -i 61 -a 0 -x {1.0 0.0 -1 ------- null}
- -t 0.36624 -s 0 -d 1 -p tcp -e 1040 -c 0 -i 37 -a 0 -x {0.0 1.0 24 ------- null}
h -t 0.36624 -s 0 -d 1 -p tcp -e 1040 -c 0 -i 37 -a 0 -x {0.0 1.0 -1 ------- null}
r -t 0.369813333333333 -s 1 -d 0 -p ack -e 40 -c 0 -i 59 -a 0 -x {1.0 0.0 20 ------- null}
+ -t 0.369813333333333 -s 0 -d 1 -p tcp -e 1040 -c 0 -i 62 -a 0 -x {0.0 1.0 40 ------- null}
r -t 0.370693333333333 -s 0 -d 1 -p tcp -e 1040 -c 0 -i 34 -a 0 -x {0.0 1.0 22 ------- null}
+ -t 0.370693333333333 -s 1 -d 0 -p ack -e 40 -c 0 -i 63 -a 0 -x {1.0 0.0 22 ------- null}
- -t 0.370693333333333 -s 1 -d 0 -p ack -e 40 -c 0 -i 63 -a 0 -x {1.0 0.0 22 ------- null}
h -t 0.370693333333333 -s 1 -d 0 -p ack -e 40 -c 0 -i 63 -a 0 -x {1.0 0.0 -1 ------- null}
- -t 0.371786666666666 -s 0 -d 1 -p tcp -e 1040 -c 0 -i 39 -a 0 -x {0.0 1.0 25 ------- null}
h -t 0.371786666666666 -s 0 -d 1 -p tcp -e 1040 -c 0 -i 39 -a 0 -x {0.0 1.0 -1 ------- null}
r -t 0.37536 -s 1 -d 0 -p ack -e 40 -c 0 -i 61 -a 0 -x {1.0 0.0 21 ------- null}
+ -t 0.37536 -s 0 -d 1 -p tcp -e 1040 -c 0 -i 64 -a 0 -x {0.0 1.0 41 ------- null}
r -t 0.37624 -s 0 -d 1 -p tcp -e 1040 -c 0 -i 36 -a 0 -x {0.0 1.0 23 ------- null}
+ -t 0.37624 -s 1 -d 0 -p ack -e 40 -c 0 -i 65 -a 0 -x {1.0 0.0 23 ------- null}
- -t 0.37624 -s 1 -d 0 -p ack -e 40 -c 0 -i 65 -a 0 -x {1.0 0.0 23 ------- null}
h -t 0.37624 -s 1 -d 0 -p ack -e 40 -c 0 -i 65 -a 0 -x {1.0 0.0 -1 ------- null}
- -t 0.377333333333333 -s 0 -d 1 -p tcp -e 1040 -c 0 -i 40 -a 0 -x {0.0 1.0 26 ------- null}
h -t 0.377333333333333 -s 0 -d 1 -p tcp -e 1040 -c 0 -i 40 -a 0 -x {0.0 1.0 -1 ------- null}
r -t 0.380906666666666 -s 1 -d 0 -p ack -e 40 -c 0 -i 63 -a 0 -x {1.0 0.0 22 ------- null}
+ -t 0.380906666666666 -s 0 -d 1 -p tcp -e 1040 -c 0 -i 66 -a 0 -x {0.0 1.0 42 ------- null}
r -t 0.381786666666666 -s 0 -d 1 -p tcp -e 1040 -c 0 -i 37 -a 0 -x {0.0 1.0 24 ------- null}
+ -t 0.381786666666666 -s 1 -d 0 -p ack -e 40 -c 0 -i 67 -a 0 -x {1.0 0.0 24 ------- null}
- -t 0.381786666666666 -s 1 -d 0 -p ack -e 40 -c 0 -i 67 -a 0 -x {1.0 0.0 24 ------- null}
h -t 0.381786666666666 -s 1 -d 0 -p ack -e 40 -c 0 -i 67 -a 0 -x {1.0 0.0 -1 ------- null}
- -t 0.38288 -s 0 -d 1 -p tcp -e 1040 -c 0 -i 42 -a 0 -x {0.0 1.0 27 ------- null}
h -t 0.38288 -s 0 -d 1 -p tcp -e 1040 -c 0 -i 42 -a 0 -x {0.0 1.0 -1 ------- null}
r -t 0.386453333333333 -s 1 -d 0 -p ack -e 40 -c 0 -i 65 -a 0 -x {1.0 0.0 23 ------- null}
+ -t 0.386453333333333 -s 0 -d 1 -p tcp -e 1040 -c 0 -i 68 -a 0 -x {0.0 1.0 43 ------- null}
r -t 0.387333333333333 -s 0 -d 1 -p tcp -e 1040 -c 0 -i 39 -a 0 -x {0.0 1.0 25 ------- null}
+ -t 0.387333333333333 -s 1 -d 0 -p ack -e 40 -c 0 -i 69 -a 0 -x {1.0 0.0 25 ------- null}
- -t 0.387333333333333 -s 1 -d 0 -p ack -e 40 -c 0 -i 69 -a 0 -x {1.0 0.0 25 ------- null}
h -t 0.387333333333333 -s 1 -d 0 -p ack -e 40 -c 0 -i 69 -a 0 -x {1.0 0.0 -1 ------- null}
- -t 0.388426666666666 -s 0 -d 1 -p tcp -e 1040 -c 0 -i 43 -a 0 -x {0.0 1.0 28 ------- null}
h -t 0.388426666666666 -s 0 -d 1 -p tcp -e 1040 -c 0 -i 43 -a 0 -x {0.0 1.0 -1 ------- null}
r -t 0.392 -s 1 -d 0 -p ack -e 40 -c 0 -i 67 -a 0 -x {1.0 0.0 24 ------- null}
+ -t 0.392 -s 0 -d 1 -p tcp -e 1040 -c 0 -i 70 -a 0 -x {0.0 1.0 44 ------- null}
r -t 0.39288 -s 0 -d 1 -p tcp -e 1040 -c 0 -i 40 -a 0 -x {0.0 1.0 26 ------- null}
+ -t 0.39288 -s 1 -d 0 -p ack -e 40 -c 0 -i 71 -a 0 -x {1.0 0.0 26 ------- null}
- -t 0.39288 -s 1 -d 0 -p ack -e 40 -c 0 -i 71 -a 0 -x {1.0 0.0 26 ------- null}
h -t 0.39288 -s 1 -d 0 -p ack -e 40 -c 0 -i 71 -a 0 -x {1.0 0.0 -1 ------- null}
- -t 0.393973333333333 -s 0 -d 1 -p tcp -e 1040 -c 0 -i 45 -a 0 -x {0.0 1.0 29 ------- null}
h -t 0.393973333333333 -s 0 -d 1 -p tcp -e 1040 -c 0 -i 45 -a 0 -x {0.0 1.0 -1 ------- null}
r -t 0.397546666666666 -s 1 -d 0 -p ack -e 40 -c 0 -i 69 -a 0 -x {1.0 0.0 25 ------- null}
+ -t 0.397546666666666 -s 0 -d 1 -p tcp -e 1040 -c 0 -i 72 -a 0 -x {0.0 1.0 45 ------- null}
r -t 0.398426666666666 -s 0 -d 1 -p tcp -e 1040 -c 0 -i 42 -a 0 -x {0.0 1.0 27 ------- null}
+ -t 0.398426666666666 -s 1 -d 0 -p ack -e 40 -c 0 -i 73 -a 0 -x {1.0 0.0 27 ------- null}
- -t 0.398426666666666 -s 1 -d 0 -p ack -e 40 -c 0 -i 73 -a 0 -x {1.0 0.0 27 ------- null}
h -t 0.398426666666666 -s 1 -d 0 -p ack -e 40 -c 0 -i 73 -a 0 -x {1.0 0.0 -1 ------- null}
- -t 0.399519999999999 -s 0 -d 1 -p tcp -e 1040 -c 0 -i 46 -a 0 -x {0.0 1.0 30 ------- null}
h -t 0.399519999999999 -s 0 -d 1 -p tcp -e 1040 -c 0 -i 46 -a 0 -x {0.0 1.0 -1 ------- null}
r -t 0.403093333333333 -s 1 -d 0 -p ack -e 40 -c 0 -i 71 -a 0 -x {1.0 0.0 26 ------- null}
+ -t 0.403093333333333 -s 0 -d 1 -p tcp -e 1040 -c 0 -i 74 -a 0 -x {0.0 1.0 46 ------- null}
r -t 0.403973333333333 -s 0 -d 1 -p tcp -e 1040 -c 0 -i 43 -a 0 -x {0.0 1.0 28 ------- null}
+ -t 0.403973333333333 -s 1 -d 0 -p ack -e 40 -c 0 -i 75 -a 0 -x {1.0 0.0 28 ------- null}
- -t 0.403973333333333 -s 1 -d 0 -p ack -e 40 -c 0 -i 75 -a 0 -x {1.0 0.0 28 ------- null}
h -t 0.403973333333333 -s 1 -d 0 -p ack -e 40 -c 0 -i 75 -a 0 -x {1.0 0.0 -1 ------- null}
- -t 0.405066666666666 -s 0 -d 1 -p tcp -e 1040 -c 0 -i 48 -a 0 -x {0.0 1.0 31 ------- null}
h -t 0.405066666666666 -s 0 -d 1 -p tcp -e 1040 -c 0 -i 48 -a 0 -x {0.0 1.0 -1 ------- null}
r -t 0.40864 -s 1 -d 0 -p ack -e 40 -c 0 -i 73 -a 0 -x {1.0 0.0 27 ------- null}
+ -t 0.40864 -s 0 -d 1 -p tcp -e 1040 -c 0 -i 76 -a 0 -x {0.0 1.0 47 ------- null}
r -t 0.409519999999999 -s 0 -d 1 -p tcp -e 1040 -c 0 -i 45 -a 0 -x {0.0 1.0 29 ------- null}
+ -t 0.409519999999999 -s 1 -d 0 -p ack -e 40 -c 0 -i 77 -a 0 -x {1.0 0.0 29 ------- null}
- -t 0.409519999999999 -s 1 -d 0 -p ack -e 40 -c 0 -i 77 -a 0 -x {1.0 0.0 29 ------- null}
h -t 0.409519999999999 -s 1 -d 0 -p ack -e 40 -c 0 -i 77 -a 0 -x {1.0 0.0 -1 ------- null}
- -t 0.410613333333333 -s 0 -d 1 -p tcp -e 1040 -c 0 -i 49 -a 0 -x {0.0 1.0 32 ------- null}
h -t 0.410613333333333 -s 0 -d 1 -p tcp -e 1040 -c 0 -i 49 -a 0 -x {0.0 1.0 -1 ------- null}
r -t 0.414186666666666 -s 1 -d 0 -p ack -e 40 -c 0 -i 75 -a 0 -x {1.0 0.0 28 ------- null}
+ -t 0.414186666666666 -s 0 -d 1 -p tcp -e 1040 -c 0 -i 78 -a 0 -x {0.0 1.0 48 ------- null}
r -t 0.415066666666666 -s 0 -d 1 -p tcp -e 1040 -c 0 -i 46 -a 0 -x {0.0 1.0 30 ------- null}
+ -t 0.415066666666666 -s 1 -d 0 -p ack -e 40 -c 0 -i 79 -a 0 -x {1.0 0.0 30 ------- null}
- -t 0.415066666666666 -s 1 -d 0 -p ack -e 40 -c 0 -i 79 -a 0 -x {1.0 0.0 30 ------- null}
h -t 0.415066666666666 -s 1 -d 0 -p ack -e 40 -c 0 -i 79 -a 0 -x {1.0 0.0 -1 ------- null}
- -t 0.416159999999999 -s 0 -d 1 -p tcp -e 1040 -c 0 -i 51 -a 0 -x {0.0 1.0 33 ------- null}
h -t 0.416159999999999 -s 0 -d 1 -p tcp -e 1040 -c 0 -i 51 -a 0 -x {0.0 1.0 -1 ------- null}
r -t 0.419733333333333 -s 1 -d 0 -p ack -e 40 -c 0 -i 77 -a 0 -x {1.0 0.0 29 ------- null}
+ -t 0.419733333333333 -s 0 -d 1 -p tcp -e 1040 -c 0 -i 80 -a 0 -x {0.0 1.0 49 ------- null}
r -t 0.420613333333333 -s 0 -d 1 -p tcp -e 1040 -c 0 -i 48 -a 0 -x {0.0 1.0 31 ------- null}
+ -t 0.420613333333333 -s 1 -d 0 -p ack -e 40 -c 0 -i 81 -a 0 -x {1.0 0.0 31 ------- null}
- -t 0.420613333333333 -s 1 -d 0 -p ack -e 40 -c 0 -i 81 -a 0 -x {1.0 0.0 31 ------- null}
h -t 0.420613333333333 -s 1 -d 0 -p ack -e 40 -c 0 -i 81 -a 0 -x {1.0 0.0 -1 ------- null}
- -t 0.421706666666666 -s 0 -d 1 -p tcp -e 1040 -c 0 -i 52 -a 0 -x {0.0 1.0 34 ------- null}
h -t 0.421706666666666 -s 0 -d 1 -p tcp -e 1040 -c 0 -i 52 -a 0 -x {0.0 1.0 -1 ------- null}
r -t 0.425279999999999 -s 1 -d 0 -p ack -e 40 -c 0 -i 79 -a 0 -x {1.0 0.0 30 ------- null}
+ -t 0.425279999999999 -s 0 -d 1 -p tcp -e 1040 -c 0 -i 82 -a 0 -x {0.0 1.0 50 ------- null}
r -t 0.426159999999999 -s 0 -d 1 -p tcp -e 1040 -c 0 -i 49 -a 0 -x {0.0 1.0 32 ------- null}
+ -t 0.426159999999999 -s 1 -d 0 -p ack -e 40 -c 0 -i 83 -a 0 -x {1.0 0.0 32 ------- null}
- -t 0.426159999999999 -s 1 -d 0 -p ack -e 40 -c 0 -i 83 -a 0 -x {1.0 0.0 32 ------- null}
h -t 0.426159999999999 -s 1 -d 0 -p ack -e 40 -c 0 -i 83 -a 0 -x {1.0 0.0 -1 ------- null}
- -t 0.427253333333333 -s 0 -d 1 -p tcp -e 1040 -c 0 -i 54 -a 0 -x {0.0 1.0 35 ------- null}
h -t 0.427253333333333 -s 0 -d 1 -p tcp -e 1040 -c 0 -i 54 -a 0 -x {0.0 1.0 -1 ------- null}
r -t 0.430826666666666 -s 1 -d 0 -p ack -e 40 -c 0 -i 81 -a 0 -x {1.0 0.0 31 ------- null}
+ -t 0.430826666666666 -s 0 -d 1 -p tcp -e 1040 -c 0 -i 84 -a 0 -x {0.0 1.0 51 ------- null}
r -t 0.431706666666666 -s 0 -d 1 -p tcp -e 1040 -c 0 -i 51 -a 0 -x {0.0 1.0 33 ------- null}
+ -t 0.431706666666666 -s 1 -d 0 -p ack -e 40 -c 0 -i 85 -a 0 -x {1.0 0.0 33 ------- null}
- -t 0.431706666666666 -s 1 -d 0 -p ack -e 40 -c 0 -i 85 -a 0 -x {1.0 0.0 33 ------- null}
h -t 0.431706666666666 -s 1 -d 0 -p ack -e 40 -c 0 -i 85 -a 0 -x {1.0 0.0 -1 ------- null}
- -t 0.432799999999999 -s 0 -d 1 -p tcp -e 1040 -c 0 -i 55 -a 0 -x {0.0 1.0 36 ------- null}
h -t 0.432799999999999 -s 0 -d 1 -p tcp -e 1040 -c 0 -i 55 -a 0 -x {0.0 1.0 -1 ------- null}
r -t 0.436373333333333 -s 1 -d 0 -p ack -e 40 -c 0 -i 83 -a 0 -x {1.0 0.0 32 ------- null}
+ -t 0.436373333333333 -s 0 -d 1 -p tcp -e 1040 -c 0 -i 86 -a 0 -x {0.0 1.0 52 ------- null}
r -t 0.437253333333333 -s 0 -d 1 -p tcp -e 1040 -c 0 -i 52 -a 0 -x {0.0 1.0 34 ------- null}
+ -t 0.437253333333333 -s 1 -d 0 -p ack -e 40 -c 0 -i 87 -a 0 -x {1.0 0.0 34 ------- null}
- -t 0.437253333333333 -s 1 -d 0 -p ack -e 40 -c 0 -i 87 -a 0 -x {1.0 0.0 34 ------- null}
h -t 0.437253333333333 -s 1 -d 0 -p ack -e 40 -c 0 -i 87 -a 0 -x {1.0 0.0 -1 ------- null}
- -t 0.438346666666666 -s 0 -d 1 -p tcp -e 1040 -c 0 -i 57 -a 0 -x {0.0 1.0 37 ------- null}
h -t 0.438346666666666 -s 0 -d 1 -p tcp -e 1040 -c 0 -i 57 -a 0 -x {0.0 1.0 -1 ------- null}
r -t 0.441919999999999 -s 1 -d 0 -p ack -e 40 -c 0 -i 85 -a 0 -x {1.0 0.0 33 ------- null}
+ -t 0.441919999999999 -s 0 -d 1 -p tcp -e 1040 -c 0 -i 88 -a 0 -x {0.0 1.0 53 ------- null}
r -t 0.442799999999999 -s 0 -d 1 -p tcp -e 1040 -c 0 -i 54 -a 0 -x {0.0 1.0 35 ------- null}
+ -t 0.442799999999999 -s 1 -d 0 -p ack -e 40 -c 0 -i 89 -a 0 -x {1.0 0.0 35 ------- null}
- -t 0.442799999999999 -s 1 -d 0 -p ack -e 40 -c 0 -i 89 -a 0 -x {1.0 0.0 35 ------- null}
h -t 0.442799999999999 -s 1 -d 0 -p ack -e 40 -c 0 -i 89 -a 0 -x {1.0 0.0 -1 ------- null}
- -t 0.443893333333333 -s 0 -d 1 -p tcp -e 1040 -c 0 -i 58 -a 0 -x {0.0 1.0 38 ------- null}
h -t 0.443893333333333 -s 0 -d 1 -p tcp -e 1040 -c 0 -i 58 -a 0 -x {0.0 1.0 -1 ------- null}
r -t 0.447466666666666 -s 1 -d 0 -p ack -e 40 -c 0 -i 87 -a 0 -x {1.0 0.0 34 ------- null}
+ -t 0.447466666666666 -s 0 -d 1 -p tcp -e 1040 -c 0 -i 90 -a 0 -x {0.0 1.0 54 ------- null}
r -t 0.448346666666666 -s 0 -d 1 -p tcp -e 1040 -c 0 -i 55 -a 0 -x {0.0 1.0 36 ------- null}
+ -t 0.448346666666666 -s 1 -d 0 -p ack -e 40 -c 0 -i 91 -a 0 -x {1.0 0.0 36 ------- null}
- -t 0.448346666666666 -s 1 -d 0 -p ack -e 40 -c 0 -i 91 -a 0 -x {1.0 0.0 36 ------- null}
h -t 0.448346666666666 -s 1 -d 0 -p ack -e 40 -c 0 -i 91 -a 0 -x {1.0 0.0 -1 ------- null}
- -t 0.449439999999999 -s 0 -d 1 -p tcp -e 1040 -c 0 -i 60 -a 0 -x {0.0 1.0 39 ------- null}
h -t 0.449439999999999 -s 0 -d 1 -p tcp -e 1040 -c 0 -i 60 -a 0 -x {0.0 1.0 -1 ------- null}
r -t 0.453013333333333 -s 1 -d 0 -p ack -e 40 -c 0 -i 89 -a 0 -x {1.0 0.0 35 ------- null}
+ -t 0.453013333333333 -s 0 -d 1 -p tcp -e 1040 -c 0 -i 92 -a 0 -x {0.0 1.0 55 ------- null}
r -t 0.453893333333333 -s 0 -d 1 -p tcp -e 1040 -c 0 -i 57 -a 0 -x {0.0 1.0 37 ------- null}
+ -t 0.453893333333333 -s 1 -d 0 -p ack -e 40 -c 0 -i 93 -a 0 -x {1.0 0.0 37 ------- null}
- -t 0.453893333333333 -s 1 -d 0 -p ack -e 40 -c 0 -i 93 -a 0 -x {1.0 0.0 37 ------- null}
h -t 0.453893333333333 -s 1 -d 0 -p ack -e 40 -c 0 -i 93 -a 0 -x {1.0 0.0 -1 ------- null}
- -t 0.454986666666666 -s 0 -d 1 -p tcp -e 1040 -c 0 -i 62 -a 0 -x {0.0 1.0 40 ------- null}
h -t 0.454986666666666 -s 0 -d 1 -p tcp -e 1040 -c 0 -i 62 -a 0 -x {0.0 1.0 -1 ------- null}
r -t 0.458559999999999 -s 1 -d 0 -p ack -e 40 -c 0 -i 91 -a 0 -x {1.0 0.0 36 ------- null}
+ -t 0.458559999999999 -s 0 -d 1 -p tcp -e 1040 -c 0 -i 94 -a 0 -x {0.0 1.0 56 ------- null}
r -t 0.459439999999999 -s 0 -d 1 -p tcp -e 1040 -c 0 -i 58 -a 0 -x {0.0 1.0 38 ------- null}
+ -t 0.459439999999999 -s 1 -d 0 -p ack -e 40 -c 0 -i 95 -a 0 -x {1.0 0.0 38 ------- null}
- -t 0.459439999999999 -s 1 -d 0 -p ack -e 40 -c 0 -i 95 -a 0 -x {1.0 0.0 38 ------- null}
h -t 0.459439999999999 -s 1 -d 0 -p ack -e 40 -c 0 -i 95 -a 0 -x {1.0 0.0 -1 ------- null}