s 0.001600000 _1_ MAC  --- 0 CM7 8 [0 ffffffff 1 0] [energy 9.999979 ei 0.000 es 0.000 et 0.000 er 0.000] 
N -t 0.001600 -n 2 -e 9.999970
N -t 0.001600 -n 0 -e 9.999970
r 0.002048050 _2_ MAC  --- 0 CM7 8 [0 ffffffff 1 0] [energy 9.999970 ei 0.000 es 0.000 et 0.000 er 0.000] 
r 0.002048050 _0_ MAC  --- 0 CM7 8 [0 ffffffff 1 0] [energy 9.999970 ei 0.000 es 0.000 et 0.000 er 0.000] 
s 0.002240000 _3_ MAC  --- 0 CM7 8 [0 ffffffff 3 0] [energy 9.999977 ei 0.000 es 0.000 et 0.000 er 0.000] 
N -t 0.002240 -n 0 -e 9.999944
N -t 0.002240 -n 4 -e 9.999968
r 0.002688050 _0_ MAC  --- 0 CM7 8 [0 ffffffff 3 0] [energy 9.999944 ei 0.000 es 0.000 et 0.000 er 0.000] 
r 0.002688050 _4_ MAC  --- 0 CM7 8 [0 ffffffff 3 0] [energy 9.999968 ei 0.000 es 0.000 et 0.000 er 0.000] 
s 0.142080000 _3_ MAC  --- 0 CM7 8 [0 ffffffff 3 0] [energy 9.999550 ei 0.000 es 0.000 et 0.000 er 0.000] 
N -t 0.142080 -n 0 -e 9.999530
N -t 0.142080 -n 4 -e 9.999554
s 0.142400000 _1_ MAC  --- 0 CM7 8 [0 ffffffff 1 0] [energy 9.999549 ei 0.000 es 0.000 et 0.000 er 0.000] 
N -t 0.142400 -n 2 -e 9.999553
N -t 0.142400 -n 0 -e 9.999512
s 0.281920000 _3_ MAC  --- 0 CM7 8 [0 ffffffff 3 0] [energy 9.999122 ei 0.001 es 0.000 et 0.000 er 0.000] 
N -t 0.281920 -n 0 -e 9.999099
N -t 0.281920 -n 4 -e 9.999140
s 0.282240000 _1_ MAC  --- 0 CM7 8 [0 ffffffff 1 0] [energy 9.999121 ei 0.001 es 0.000 et 0.000 er 0.000] 
N -t 0.282240 -n 2 -e 9.999139
N -t 0.282240 -n 0 -e 9.999081
s 0.420992000 _3_ MAC  --- 0 BCN 12 [0 ffffffff 3 0] [energy 9.999100 ei 0.001 es 0.000 et 0.000 er 0.000] 
N -t 0.420992 -n 0 -e 9.998662
N -t 0.420992 -n 4 -e 9.998721
s 0.421312000 _1_ MAC  --- 0 BCN 12 [0 ffffffff 1 0] [energy 9.999099 ei 0.001 es 0.000 et 0.000 er 0.000] 
N -t 0.421312 -n 2 -e 9.998720
N -t 0.421312 -n 0 -e 9.998644
D 0.421568050 _0_ MAC  ERR 0 BCN 12 [0 ffffffff 3 0] [energy 9.998644 ei 0.001 es 0.000 et 0.000 er 0.000] 
s 0.543872000 _3_ MAC  --- 0 BCN 12 [0 ffffffff 3 0] [energy 9.998685 ei 0.001 es 0.000 et 0.000 er 0.000] 
N -t 0.543872 -n 0 -e 9.998271
N -t 0.543872 -n 4 -e 9.998347
s 0.544192000 _1_ MAC  --- 0 BCN 12 [0 ffffffff 1 0] [energy 9.998685 ei 0.001 es 0.000 et 0.000 er 0.000] 
N -t 0.544192 -n 2 -e 9.998346
N -t 0.544192 -n 0 -e 9.998253
D 0.544448050 _0_ MAC  LQI 0 BCN 12 [0 ffffffff 3 0] [energy 9.998253 ei 0.002 es 0.000 et 0.000 er 0.000] 
s 0.666752000 _3_ MAC  --- 0 BCN 12 [0 ffffffff 3 0] [energy 9.998317 ei 0.002 es 0.000 et 0.000 er 0.000] 
N -t 0.666752 -n 0 -e 9.997880
N -t 0.666752 -n 4 -e 9.997973
s 0.667072000 _1_ MAC  --- 0 BCN 12 [0 ffffffff 1 0] [energy 9.998316 ei 0.002 es 0.000 et 0.000 er 0.000] 
N -t 0.667072 -n 2 -e 9.997972
N -t 0.667072 -n 0 -e 9.997862
D 0.667328050 _0_ MAC  LQI 0 BCN 12 [0 ffffffff 3 0] [energy 9.997862 ei 0.002 es 0.000 et 0.000 er 0.000] 
s 0.789632000 _3_ MAC  --- 0 BCN 12 [0 ffffffff 3 0] [energy 9.997948 ei 0.002 es 0.000 et 0.000 er 0.000] 
N -t 0.789632 -n 0 -e 9.997489
N -t 0.789632 -n 4 -e 9.997599
s 0.789952000 _1_ MAC  --- 0 BCN 12 [0 ffffffff 1 0] [energy 9.997947 ei 0.002 es 0.000 et 0.000 er 0.000] 
N -t 0.789952 -n 2 -e 9.997598
N -t 0.789952 -n 0 -e 9.997471
D 0.790208050 _0_ MAC  LQI 0 BCN 12 [0 ffffffff 3 0] [energy 9.997471 ei 0.002 es 0.000 et 0.000 er 0.000] 
s 0.912512000 _3_ MAC  --- 0 BCN 12 [0 ffffffff 3 0] [energy 9.997579 ei 0.002 es 0.000 et 0.000 er 0.000] 
N -t 0.912512 -n 0 -e 9.997098
N -t 0.912512 -n 4 -e 9.997226
s 0.912832000 _1_ MAC  --- 0 BCN 12 [0 ffffffff 1 0] [energy 9.997578 ei 0.002 es 0.000 et 0.000 er 0.000] 
N -t 0.912832 -n 2 -e 9.997225
N -t 0.912832 -n 0 -e 9.997080
D 0.913088050 _0_ MAC  LQI 0 BCN 12 [0 ffffffff 3 0] [energy 9.997080 ei 0.003 es 0.000 et 0.000 er 0.000] 
s 1.035392000 _3_ MAC  --- 0 BCN 12 [0 ffffffff 3 0] [energy 9.997210 ei 0.003 es 0.000 et 0.000 er 0.000] 
N -t 1.035392 -n 0 -e 9.996707
N -t 1.035392 -n 4 -e 9.996852
s 1.035712000 _1_ MAC  --- 0 BCN 12 [0 ffffffff 1 0] [energy 9.997209 ei 0.003 es 0.000 et 0.000 er 0.000] 
N -t 1.035712 -n 2 -e 9.996851
N -t 1.035712 -n 0 -e 9.996689
D 1.035968050 _0_ MAC  LQI 0 BCN 12 [0 ffffffff 3 0] [energy 9.996689 ei 0.003 es 0.000 et 0.000 er 0.000] 
s 1.158272000 _3_ MAC  --- 0 BCN 12 [0 ffffffff 3 0] [energy 9.996841 ei 0.003 es 0.000 et 0.000 er 0.000] 
N -t 1.158272 -n 0 -e 9.996317
N -t 1.158272 -n 4 -e 9.996478
s 1.158592000 _1_ MAC  --- 0 BCN 12 [0 ffffffff 1 0] [energy 9.996840 ei 0.003 es 0.000 et 0.000 er 0.000] 
N -t 1.158592 -n 2 -e 9.996477
N -t 1.158592 -n 0 -e 9.996298
D 1.158848050 _0_ MAC  ERR 0 BCN 12 [0 ffffffff 3 0] [energy 9.996298 ei 0.003 es 0.000 et 0.000 er 0.000] 
s 1.281152000 _3_ MAC  --- 0 BCN 12 [0 ffffffff 3 0] [energy 9.996472 ei 0.003 es 0.000 et 0.000 er 0.000] 
N -t 1.281152 -n 0 -e 9.995926
N -t 1.281152 -n 4 -e 9.996104
s 1.281472000 _1_ MAC  --- 0 BCN 12 [0 ffffffff 1 0] [energy 9.996471 ei 0.003 es 0.000 et 0.000 er 0.000] 
N -t 1.281472 -n 2 -e 9.996103
N -t 1.281472 -n 0 -e 9.995907
D 1.281728050 _0_ MAC  LQI 0 BCN 12 [0 ffffffff 3 0] [energy 9.995907 ei 0.004 es 0.000 et 0.000 er 0.001] 
s 1.404032000 _3_ MAC  --- 0 BCN 12 [0 ffffffff 3 0] [energy 9.996103 ei 0.004 es 0.000 et 0.000 er 0.000] 
N -t 1.404032 -n 0 -e 9.995535
N -t 1.404032 -n 4 -e 9.995731
s 1.404352000 _1_ MAC  --- 0 BCN 12 [0 ffffffff 1 0] [energy 9.996102 ei 0.004 es 0.000 et 0.000 er 0.000] 
N -t 1.404352 -n 2 -e 9.995730
N -t 1.404352 -n 0 -e 9.995517
D 1.404608050 _0_ MAC  LQI 0 BCN 12 [0 ffffffff 3 0] [energy 9.995517 ei 0.004 es 0.000 et 0.000 er 0.001] 
s 1.526912000 _3_ MAC  --- 0 BCN 12 [0 ffffffff 3 0] [energy 9.995734 ei 0.004 es 0.000 et 0.000 er 0.000] 
N -t 1.526912 -n 0 -e 9.995144
N -t 1.526912 -n 4 -e 9.995357
s 1.527232000 _1_ MAC  --- 0 BCN 12 [0 ffffffff 1 0] [energy 9.995734 ei 0.004 es 0.000 et 0.000 er 0.000] 
N -t 1.527232 -n 2 -e 9.995356
N -t 1.527232 -n 0 -e 9.995126
D 1.527488050 _0_ MAC  LQI 0 BCN 12 [0 ffffffff 3 0] [energy 9.995126 ei 0.004 es 0.000 et 0.000 er 0.001] 
s 1.649792000 _3_ MAC  --- 0 BCN 12 [0 ffffffff 3 0] [energy 9.995366 ei 0.004 es 0.000 et 0.000 er 0.000] 
N -t 1.649792 -n 0 -e 9.994753
N -t 1.649792 -n 4 -e 9.994983
s 1.650112000 _1_ MAC  --- 0 BCN 12 [0 ffffffff 1 0] [energy 9.995365 ei 0.004 es 0.000 et 0.000 er 0.000] 
N -t 1.650112 -n 2 -e 9.994982
N -t 1.650112 -n 0 -e 9.994735
D 1.650368050 _0_ MAC  LQI 0 BCN 12 [0 ffffffff 3 0] [energy 9.994735 ei 0.005 es 0.000 et 0.000 er 0.001] 
s 1.772672000 _3_ MAC  --- 0 BCN 12 [0 ffffffff 3 0] [energy 9.994997 ei 0.005 es 0.000 et 0.000 er 0.000] 
N -t 1.772672 -n 0 -e 9.994362
N -t 1.772672 -n 4 -e 9.994609
s 1.772992000 _1_ MAC  --- 0 BCN 12 [0 ffffffff 1 0] [energy 9.994996 ei 0.005 es 0.000 et 0.000 er 0.000] 
N -t 1.772992 -n 2 -e 9.994608
N -t 1.772992 -n 0 -e 9.994344
D 1.773248050 _0_ MAC  LQI 0 BCN 12 [0 ffffffff 3 0] [energy 9.994344 ei 0.005 es 0.000 et 0.000 er 0.001] 
s 1.895552000 _3_ MAC  --- 0 BCN 12 [0 ffffffff 3 0] [energy 9.994628 ei 0.005 es 0.000 et 0.000 er 0.000] 
N -t 1.895552 -n 0 -e 9.993971
N -t 1.895552 -n 4 -e 9.994235
s 1.895872000 _1_ MAC  --- 0 BCN 12 [0 ffffffff 1 0] [energy 9.994627 ei 0.005 es 0.000 et 0.000 er 0.000] 
N -t 1.895872 -n 2 -e 9.994235
N -t 1.895872 -n 0 -e 9.993953
D 1.896128050 _0_ MAC  LQI 0 BCN 12 [0 ffffffff 3 0] [energy 9.993953 ei 0.005 es 0.000 et 0.000 er 0.001] 
s 2.018432000 _3_ MAC  --- 0 BCN 12 [0 ffffffff 3 0] [energy 9.994259 ei 0.005 es 0.000 et 0.000 er 0.000] 
N -t 2.018432 -n 0 -e 9.993580
N -t 2.018432 -n 4 -e 9.993862
s 2.018752000 _1_ MAC  --- 0 BCN 12 [0 ffffffff 1 0] [energy 9.994258 ei 0.005 es 0.000 et 0.000 er 0.000] 
N -t 2.018752 -n 2 -e 9.993861
N -t 2.018752 -n 0 -e 9.993562
D 2.019008050 _0_ MAC  LQI 0 BCN 12 [0 ffffffff 3 0] [energy 9.993562 ei 0.006 es 0.000 et 0.000 er 0.001] 
s 2.141312000 _3_ MAC  --- 0 BCN 12 [0 ffffffff 3 0] [energy 9.993890 ei 0.006 es 0.000 et 0.000 er 0.000] 
N -t 2.141312 -n 0 -e 9.993189
N -t 2.141312 -n 4 -e 9.993488
s 2.141632000 _1_ MAC  --- 0 BCN 12 [0 ffffffff 1 0] [energy 9.993889 ei 0.006 es 0.000 et 0.000 er 0.000] 
N -t 2.141632 -n 2 -e 9.993487
N -t 2.141632 -n 0 -e 9.993171
D 2.141888050 _0_ MAC  LQI 0 BCN 12 [0 ffffffff 3 0] [energy 9.993171 ei 0.006 es 0.000 et 0.000 er 0.001] 
s 2.264192000 _3_ MAC  --- 0 BCN 12 [0 ffffffff 3 0] [energy 9.993521 ei 0.006 es 0.000 et 0.000 er 0.000] 
N -t 2.264192 -n 0 -e 9.992798
N -t 2.264192 -n 4 -e 9.993114
s 2.264512000 _1_ MAC  --- 0 BCN 12 [0 ffffffff 1 0] [energy 9.993520 ei 0.006 es 0.000 et 0.000 er 0.000] 
N -t 2.264512 -n 2 -e 9.993113
N -t 2.264512 -n 0 -e 9.992780
D 2.264768050 _0_ MAC  LQI 0 BCN 12 [0 ffffffff 3 0] [energy 9.992780 ei 0.006 es 0.000 et 0.000 er 0.001] 
s 2.387072000 _3_ MAC  --- 0 BCN 12 [0 ffffffff 3 0] [energy 9.993152 ei 0.006 es 0.000 et 0.001 er 0.000] 
N -t 2.387072 -n 0 -e 9.992407
N -t 2.387072 -n 4 -e 9.992740
s 2.387392000 _1_ MAC  --- 0 BCN 12 [0 ffffffff 1 0] [energy 9.993151 ei 0.006 es 0.000 et 0.001 er 0.000] 
N -t 2.387392 -n 2 -e 9.992739
N -t 2.387392 -n 0 -e 9.992389
D 2.387648050 _0_ MAC  LQI 0 BCN 12 [0 ffffffff 3 0] [energy 9.992389 ei 0.007 es 0.000 et 0.000 er 0.001] 
s 2.509952000 _3_ MAC  --- 0 BCN 12 [0 ffffffff 3 0] [energy 9.992783 ei 0.007 es 0.000 et 0.001 er 0.000] 
N -t 2.509952 -n 0 -e 9.992016
N -t 2.509952 -n 4 -e 9.992367
s 2.510272000 _1_ MAC  --- 0 BCN 12 [0 ffffffff 1 0] [energy 9.992783 ei 0.007 es 0.000 et 0.001 er 0.000] 
N -t 2.510272 -n 2 -e 9.992366
N -t 2.510272 -n 0 -e 9.991998
D 2.510528050 _0_ MAC  LQI 0 BCN 12 [0 ffffffff 3 0] [energy 9.991998 ei 0.007 es 0.000 et 0.000 er 0.001] 
s 2.632832000 _3_ MAC  --- 0 BCN 12 [0 ffffffff 3 0] [energy 9.992415 ei 0.007 es 0.000 et 0.001 er 0.000] 
N -t 2.632832 -n 0 -e 9.991625
N -t 2.632832 -n 4 -e 9.991993
s 2.633152000 _1_ MAC  --- 0 BCN 12 [0 ffffffff 1 0] [energy 9.992414 ei 0.007 es 0.000 et 0.001 er 0.000] 
N -t 2.633152 -n 2 -e 9.991992
N -t 2.633152 -n 0 -e 9.991607
D 2.633408050 _0_ MAC  LQI 0 BCN 12 [0 ffffffff 3 0] [energy 9.991607 ei 0.007 es 0.000 et 0.000 er 0.001] 
s 2.755712000 _3_ MAC  --- 0 BCN 12 [0 ffffffff 3 0] [energy 9.992046 ei 0.007 es 0.000 et 0.001 er 0.000] 
N -t 2.755712 -n 0 -e 9.991234
N -t 2.755712 -n 4 -e 9.991619
s 2.756032000 _1_ MAC  --- 0 BCN 12 [0 ffffffff 1 0] [energy 9.992045 ei 0.007 es 0.000 et 0.001 er 0.000] 
N -t 2.756032 -n 2 -e 9.991618
N -t 2.756032 -n 0 -e 9.991216
D 2.756288050 _0_ MAC  LQI 0 BCN 12 [0 ffffffff 3 0] [energy 9.991216 ei 0.008 es 0.000 et 0.000 er 0.001] 
D 2.756288050 _4_ MAC  ERR 0 BCN 12 [0 ffffffff 3 0] [energy 9.991619 ei 0.008 es 0.000 et 0.000 er 0.001] 
s 2.878592000 _3_ MAC  --- 0 BCN 12 [0 ffffffff 3 0] [energy 9.991677 ei 0.008 es 0.000 et 0.001 er 0.000] 
N -t 2.878592 -n 0 -e 9.990843
N -t 2.878592 -n 4 -e 9.991245
s 2.878912000 _1_ MAC  --- 0 BCN 12 [0 ffffffff 1 0] [energy 9.991676 ei 0.008 es 0.000 et 0.001 er 0.000] 
N -t 2.878912 -n 2 -e 9.991244
N -t 2.878912 -n 0 -e 9.990825
D 2.879168050 _0_ MAC  ERR 0 BCN 12 [0 ffffffff 3 0] [energy 9.990825 ei 0.008 es 0.000 et 0.000 er 0.001] 
s 3.001472000 _3_ MAC  --- 0 BCN 12 [0 ffffffff 3 0] [energy 9.991308 ei 0.008 es 0.000 et 0.001 er 0.000] 
N -t 3.001472 -n 0 -e 9.990452
N -t 3.001472 -n 4 -e 9.990871
s 3.001792000 _1_ MAC  --- 0 BCN 12 [0 ffffffff 1 0] [energy 9.991307 ei 0.008 es 0.000 et 0.001 er 0.000] 
N -t 3.001792 -n 2 -e 9.990871
N -t 3.001792 -n 0 -e 9.990434
D 3.002048050 _0_ MAC  LQI 0 BCN 12 [0 ffffffff 3 0] [energy 9.990434 ei 0.008 es 0.000 et 0.000 er 0.001] 
s 3.124352000 _3_ MAC  --- 0 BCN 12 [0 ffffffff 3 0] [energy 9.990939 ei 0.008 es 0.000 et 0.001 er 0.000] 
N -t 3.124352 -n 0 -e 9.990061
N -t 3.124352 -n 4 -e 9.990498
s 3.124672000 _1_ MAC  --- 0 BCN 12 [0 ffffffff 1 0] [energy 9.990938 ei 0.008 es 0.000 et 0.001 er 0.000] 
N -t 3.124672 -n 2 -e 9.990497
N -t 3.124672 -n 0 -e 9.990043
D 3.124928050 _0_ MAC  LQI 0 BCN 12 [0 ffffffff 3 0] [energy 9.990043 ei 0.009 es 0.000 et 0.000 er 0.001] 
s 3.247232000 _3_ MAC  --- 0 BCN 12 [0 ffffffff 3 0] [energy 9.990570 ei 0.009 es 0.000 et 0.001 er 0.000] 
N -t 3.247232 -n 0 -e 9.989670
N -t 3.247232 -n 4 -e 9.990124
s 3.247552000 _1_ MAC  --- 0 BCN 12 [0 ffffffff 1 0] [energy 9.990569 ei 0.009 es 0.000 et 0.001 er 0.000] 
N -t 3.247552 -n 2 -e 9.990123
N -t 3.247552 -n 0 -e 9.989652
D 3.247808050 _0_ MAC  LQI 0 BCN 12 [0 ffffffff 3 0] [energy 9.989652 ei 0.009 es 0.000 et 0.000 er 0.001] 
s 3.370112000 _3_ MAC  --- 0 BCN 12 [0 ffffffff 3 0] [energy 9.990201 ei 0.009 es 0.000 et 0.001 er 0.000] 
N -t 3.370112 -n 0 -e 9.989279
N -t 3.370112 -n 4 -e 9.989750
s 3.370432000 _1_ MAC  --- 0 BCN 12 [0 ffffffff 1 0] [energy 9.990200 ei 0.009 es 0.000 et 0.001 er 0.000] 
N -t 3.370432 -n 2 -e 9.989749
N -t 3.370432 -n 0 -e 9.989261
D 3.370688050 _0_ MAC  LQI 0 BCN 12 [0 ffffffff 3 0] [energy 9.989261 ei 0.009 es 0.000 et 0.000 er 0.001] 
s 3.492992000 _3_ MAC  --- 0 BCN 12 [0 ffffffff 3 0] [energy 9.989832 ei 0.009 es 0.000 et 0.001 er 0.000] 
N -t 3.492992 -n 0 -e 9.988888
N -t 3.492992 -n 4 -e 9.989376
s 3.493312000 _1_ MAC  --- 0 BCN 12 [0 ffffffff 1 0] [energy 9.989832 ei 0.009 es 0.000 et 0.001 er 0.000] 
N -t 3.493312 -n 2 -e 9.989376
N -t 3.493312 -n 0 -e 9.988870
D 3.493568050 _0_ MAC  ERR 0 BCN 12 [0 ffffffff 3 0] [energy 9.988870 ei 0.010 es 0.000 et 0.000 er 0.001] 
s 3.615872000 _3_ MAC  --- 0 BCN 12 [0 ffffffff 3 0] [energy 9.989464 ei 0.010 es 0.000 et 0.001 er 0.000] 
N -t 3.615872 -n 0 -e 9.988497
N -t 3.615872 -n 4 -e 9.989003
s 3.616192000 _1_ MAC  --- 0 BCN 12 [0 ffffffff 1 0] [energy 9.989463 ei 0.010 es 0.000 et 0.001 er 0.000] 
N -t 3.616192 -n 2 -e 9.989002
N -t 3.616192 -n 0 -e 9.988479
D 3.616448050 _0_ MAC  LQI 0 BCN 12 [0 ffffffff 3 0] [energy 9.988479 ei 0.010 es 0.000 et 0.000 er 0.002] 
s 3.738752000 _3_ MAC  --- 0 BCN 12 [0 ffffffff 3 0] [energy 9.989095 ei 0.010 es 0.000 et 0.001 er 0.000] 
N -t 3.738752 -n 0 -e 9.988106
N -t 3.738752 -n 4 -e 9.988629
s 3.739072000 _1_ MAC  --- 0 BCN 12 [0 ffffffff 1 0] [energy 9.989094 ei 0.010 es 0.000 et 0.001 er 0.000] 
N -t 3.739072 -n 2 -e 9.988628
N -t 3.739072 -n 0 -e 9.988088
D 3.739328050 _0_ MAC  LQI 0 BCN 12 [0 ffffffff 3 0] [energy 9.988088 ei 0.010 es 0.000 et 0.000 er 0.002] 
s 3.861632000 _3_ MAC  --- 0 BCN 12 [0 ffffffff 3 0] [energy 9.988726 ei 0.010 es 0.000 et 0.001 er 0.000] 
N -t 3.861632 -n 0 -e 9.987715
N -t 3.861632 -n 4 -e 9.988255
s 3.861952000 _1_ MAC  --- 0 BCN 12 [0 ffffffff 1 0] [energy 9.988725 ei 0.010 es 0.000 et 0.001 er 0.000] 
N -t 3.861952 -n 2 -e 9.988254
N -t 3.861952 -n 0 -e 9.987697
D 3.862208050 _0_ MAC  LQI 0 BCN 12 [0 ffffffff 3 0] [energy 9.987697 ei 0.011 es 0.000 et 0.000 er 0.002] 
s 3.984512000 _3_ MAC  --- 0 BCN 12 [0 ffffffff 3 0] [energy 9.988357 ei 0.011 es 0.000 et 0.001 er 0.000] 
N -t 3.984512 -n 0 -e 9.987324
N -t 3.984512 -n 4 -e 9.987881
s 3.984832000 _1_ MAC  --- 0 BCN 12 [0 ffffffff 1 0] [energy 9.988356 ei 0.011 es 0.000 et 0.001 er 0.000] 
N -t 3.984832 -n 2 -e 9.987880
N -t 3.984832 -n 0 -e 9.987306
D 3.985088050 _0_ MAC  LQI 0 BCN 12 [0 ffffffff 3 0] [energy 9.987306 ei 0.011 es 0.000 et 0.000 er 0.002] 
s 4.107392000 _3_ MAC  --- 0 BCN 12 [0 ffffffff 3 0] [energy 9.987988 ei 0.011 es 0.000 et 0.001 er 0.000] 
N -t 4.107392 -n 0 -e 9.986933
N -t 4.107392 -n 4 -e 9.987508
s 4.107712000 _1_ MAC  --- 0 BCN 12 [0 ffffffff 1 0] [energy 9.987987 ei 0.011 es 0.000 et 0.001 er 0.000] 
N -t 4.107712 -n 2 -e 9.987507
N -t 4.107712 -n 0 -e 9.986915
D 4.107968050 _0_ MAC  LQI 0 BCN 12 [0 ffffffff 3 0] [energy 9.986915 ei 0.011 es 0.000 et 0.000 er 0.002] 
D 4.108288050 _2_ MAC  ERR 0 BCN 12 [0 ffffffff 1 0] [energy 9.987507 ei 0.011 es 0.000 et 0.000 er 0.001] 
s 4.230272000 _3_ MAC  --- 0 BCN 12 [0 ffffffff 3 0] [energy 9.987619 ei 0.011 es 0.000 et 0.001 er 0.000] 
N -t 4.230272 -n 0 -e 9.986543
N -t 4.230272 -n 4 -e 9.987134
s 4.230592000 _1_ MAC  --- 0 BCN 12 [0 ffffffff 1 0] [energy 9.987618 ei 0.011 es 0.000 et 0.001 er 0.000] 
N -t 4.230592 -n 2 -e 9.987133
N -t 4.230592 -n 0 -e 9.986524
D 4.230848050 _0_ MAC  LQI 0 BCN 12 [0 ffffffff 3 0] [energy 9.986524 ei 0.012 es 0.000 et 0.000 er 0.002] 
s 4.353152000 _3_ MAC  --- 0 BCN 12 [0 ffffffff 3 0] [energy 9.987250 ei 0.012 es 0.000 et 0.001 er 0.000] 
N -t 4.353152 -n 0 -e 9.986152
N -t 4.353152 -n 4 -e 9.986760
s 4.353472000 _1_ MAC  --- 0 BCN 12 [0 ffffffff 1 0] [energy 9.987249 ei 0.012 es 0.000 et 0.001 er 0.000] 
N -t 4.353472 -n 2 -e 9.986759
N -t 4.353472 -n 0 -e 9.986133
D 4.353728050 _0_ MAC  LQI 0 BCN 12 [0 ffffffff 3 0] [energy 9.986133 ei 0.012 es 0.000 et 0.000 er 0.002] 
D 4.353728050 _4_ MAC  ERR 0 BCN 12 [0 ffffffff 3 0] [energy 9.986760 ei 0.012 es 0.000 et 0.000 er 0.001] 
s 4.476032000 _3_ MAC  --- 0 BCN 12 [0 ffffffff 3 0] [energy 9.986881 ei 0.012 es 0.000 et 0.001 er 0.000] 
N -t 4.476032 -n 0 -e 9.985761
N -t 4.476032 -n 4 -e 9.986386
s 4.476352000 _1_ MAC  --- 0 BCN 12 [0 ffffffff 1 0] [energy 9.986881 ei 0.012 es 0.000 et 0.001 er 0.000] 
N -t 4.476352 -n 2 -e 9.986385
N -t 4.476352 -n 0 -e 9.985743
D 4.476608050 _0_ MAC  LQI 0 BCN 12 [0 ffffffff 3 0] [energy 9.985743 ei 0.012 es 0.000 et 0.000 er 0.002] 
s 4.598912000 _3_ MAC  --- 0 BCN 12 [0 ffffffff 3 0] [energy 9.986513 ei 0.012 es 0.000 et 0.001 er 0.000] 
N -t 4.598912 -n 0 -e 9.985370
N -t 4.598912 -n 4 -e 9.986012
s 4.599232000 _1_ MAC  --- 0 BCN 12 [0 ffffffff 1 0] [energy 9.986512 ei 0.012 es 0.000 et 0.001 er 0.000] 
N -t 4.599232 -n 2 -e 9.986012
N -t 4.599232 -n 0 -e 9.985352
D 4.599488050 _0_ MAC  LQI 0 BCN 12 [0 ffffffff 3 0] [energy 9.985352 ei 0.013 es 0.000 et 0.000 er 0.002] 
D 4.599808050 _2_ MAC  ERR 0 BCN 12 [0 ffffffff 1 0] [energy 9.986012 ei 0.013 es 0.000 et 0.000 er 0.001] 
s 4.721792000 _3_ MAC  --- 0 BCN 12 [0 ffffffff 3 0] [energy 9.986144 ei 0.013 es 0.000 et 0.001 er 0.000] 
N -t 4.721792 -n 0 -e 9.984979
N -t 4.721792 -n 4 -e 9.985639
s 4.722112000 _1_ MAC  --- 0 BCN 12 [0 ffffffff 1 0] [energy 9.986143 ei 0.013 es 0.000 et 0.001 er 0.000] 
N -t 4.722112 -n 2 -e 9.985638
N -t 4.722112 -n 0 -e 9.984961
D 4.722368050 _0_ MAC  LQI 0 BCN 12 [0 ffffffff 3 0] [energy 9.984961 ei 0.013 es 0.000 et 0.000 er 0.002] 
s 4.844672000 _3_ MAC  --- 0 BCN 12 [0 ffffffff 3 0] [energy 9.985775 ei 0.013 es 0.000 et 0.001 er 0.000] 
N -t 4.844672 -n 0 -e 9.984588
N -t 4.844672 -n 4 -e 9.985265
s 4.844992000 _1_ MAC  --- 0 BCN 12 [0 ffffffff 1 0] [energy 9.985774 ei 0.013 es 0.000 et 0.001 er 0.000] 
N -t 4.844992 -n 2 -e 9.985264
N -t 4.844992 -n 0 -e 9.984570
D 4.845248050 _0_ MAC  LQI 0 BCN 12 [0 ffffffff 3 0] [energy 9.984570 ei 0.013 es 0.000 et 0.000 er 0.002] 
s 4.967552000 _3_ MAC  --- 0 BCN 12 [0 ffffffff 3 0] [energy 9.985406 ei 0.013 es 0.000 et 0.001 er 0.000] 
N -t 4.967552 -n 0 -e 9.984197
N -t 4.967552 -n 4 -e 9.984891
s 4.967872000 _1_ MAC  --- 0 BCN 12 [0 ffffffff 1 0] [energy 9.985405 ei 0.013 es 0.000 et 0.001 er 0.000] 
N -t 4.967872 -n 2 -e 9.984890
N -t 4.967872 -n 0 -e 9.984179
D 4.968128050 _0_ MAC  LQI 0 BCN 12 [0 ffffffff 3 0] [energy 9.984179 ei 0.014 es 0.000 et 0.000 er 0.002] 
s 5.002560000 _1_ MAC  --- 0 CM7 8 [0 ffffffff 1 0] [energy 9.984924 ei 0.014 es 0.000 et 0.001 er 0.000] 
N -t 5.002560 -n 2 -e 9.984770
N -t 5.002560 -n 0 -e 9.984058
r 5.003008050 _2_ MAC  --- 0 CM7 8 [0 ffffffff 1 0] [energy 9.984770 ei 0.014 es 0.000 et 0.000 er 0.001] 
r 5.003008050 _0_ MAC  --- 0 CM7 8 [0 ffffffff 1 0] [energy 9.984058 ei 0.014 es 0.000 et 0.000 er 0.002] 
s 5.090432000 _3_ MAC  --- 0 BCN 12 [0 ffffffff 3 0] [energy 9.985037 ei 0.014 es 0.000 et 0.001 er 0.000] 
N -t 5.090432 -n 0 -e 9.983782
N -t 5.090432 -n 4 -e 9.984517
D 5.091008050 _0_ MAC  ERR 0 BCN 12 [0 ffffffff 3 0] [energy 9.983782 ei 0.014 es 0.000 et 0.000 er 0.002] 
s 5.213312000 _3_ MAC  --- 0 BCN 12 [0 ffffffff 3 0] [energy 9.984668 ei 0.014 es 0.000 et 0.001 er 0.000] 
N -t 5.213312 -n 0 -e 9.983408
N -t 5.213312 -n 4 -e 9.984144
s 5.266240000 _1_ MAC  --- 0 CM7 8 [0 ffffffff 1 0] [energy 9.984151 ei 0.015 es 0.000 et 0.001 er 0.000] 
N -t 5.266240 -n 2 -e 9.984010
N -t 5.266240 -n 0 -e 9.983237
s 5.336192000 _3_ MAC  --- 0 BCN 12 [0 ffffffff 3 0] [energy 9.984299 ei 0.014 es 0.000 et 0.001 er 0.000] 
N -t 5.336192 -n 0 -e 9.983010
N -t 5.336192 -n 4 -e 9.983770
s 5.459072000 _3_ MAC  --- 0 BCN 12 [0 ffffffff 3 0] [energy 9.983930 ei 0.015 es 0.000 et 0.001 er 0.000] 
N -t 5.459072 -n 0 -e 9.982636
N -t 5.459072 -n 4 -e 9.983396
s 5.530560000 _1_ MAC  --- 0 CM7 8 [0 ffffffff 1 0] [energy 9.983376 ei 0.015 es 0.000 et 0.001 er 0.000] 
N -t 5.530560 -n 2 -e 9.983249
N -t 5.530560 -n 0 -e 9.982413
s 5.581952000 _3_ MAC  --- 0 BCN 12 [0 ffffffff 3 0] [energy 9.983562 ei 0.015 es 0.000 et 0.001 er 0.000] 
N -t 5.581952 -n 0 -e 9.982239
N -t 5.581952 -n 4 -e 9.983022
s 5.704832000 _3_ MAC  --- 0 BCN 12 [0 ffffffff 3 0] [energy 9.983193 ei 0.015 es 0.000 et 0.001 er 0.000] 
N -t 5.704832 -n 0 -e 9.981865
N -t 5.704832 -n 4 -e 9.982648
s 5.827712000 _3_ MAC  --- 0 BCN 12 [0 ffffffff 3 0] [energy 9.982824 ei 0.016 es 0.000 et 0.001 er 0.000] 
N -t 5.827712 -n 0 -e 9.981491
N -t 5.827712 -n 4 -e 9.982275
D 5.828288050 _0_ MAC  ERR 0 BCN 12 [0 ffffffff 3 0] [energy 9.981491 ei 0.016 es 0.000 et 0.000 er 0.002] 
s 5.950592000 _3_ MAC  --- 0 BCN 12 [0 ffffffff 3 0] [energy 9.982455 ei 0.016 es 0.000 et 0.001 er 0.000] 
N -t 5.950592 -n 0 -e 9.981117
N -t 5.950592 -n 4 -e 9.981901
s 6.073472000 _3_ MAC  --- 0 BCN 12 [0 ffffffff 3 0] [energy 9.982086 ei 0.017 es 0.000 et 0.001 er 0.000] 
N -t 6.073472 -n 0 -e 9.980743
N -t 6.073472 -n 4 -e 9.981527
s 6.196352000 _3_ MAC  --- 0 BCN 12 [0 ffffffff 3 0] [energy 9.981717 ei 0.017 es 0.000 et 0.001 er 0.000] 
N -t 6.196352 -n 0 -e 9.980370
N -t 6.196352 -n 4 -e 9.981153
s 6.319232000 _3_ MAC  --- 0 BCN 12 [0 ffffffff 3 0] [energy 9.981348 ei 0.017 es 0.000 et 0.001 er 0.000] 
N -t 6.319232 -n 0 -e 9.979996
N -t 6.319232 -n 4 -e 9.980780
s 6.442112000 _3_ MAC  --- 0 BCN 12 [0 ffffffff 3 0] [energy 9.980979 ei 0.018 es 0.000 et 0.001 er 0.000] 
N -t 6.442112 -n 0 -e 9.979622
N -t 6.442112 -n 4 -e 9.980406
s 6.564992000 _3_ MAC  --- 0 BCN 12 [0 ffffffff 3 0] [energy 9.980611 ei 0.018 es 0.000 et 0.001 er 0.000] 
N -t 6.564992 -n 0 -e 9.979248
N -t 6.564992 -n 4 -e 9.980032
s 6.687872000 _3_ MAC  --- 0 BCN 12 [0 ffffffff 3 0] [energy 9.980242 ei 0.018 es 0.000 et 0.001 er 0.000] 
N -t 6.687872 -n 0 -e 9.978875
N -t 6.687872 -n 4 -e 9.979658
s 6.793600000 _1_ MAC  --- 0 CM7 8 [0 ffffffff 1 0] [energy 9.979815 ei 0.019 es 0.000 et 0.001 er 0.000] 
N -t 6.793600 -n 2 -e 9.979701
N -t 6.793600 -n 0 -e 9.978556
r 6.794048050 _2_ MAC  --- 0 CM7 8 [0 ffffffff 1 0] [energy 9.979701 ei 0.019 es 0.000 et 0.000 er 0.001] 
r 6.794048050 _0_ MAC  --- 0 CM7 8 [0 ffffffff 1 0] [energy 9.978556 ei 0.019 es 0.000 et 0.000 er 0.003] 
s 6.810752000 _3_ MAC  --- 0 BCN 12 [0 ffffffff 3 0] [energy 9.979873 ei 0.019 es 0.000 et 0.002 er 0.000] 
N -t 6.810752 -n 0 -e 9.978477
N -t 6.810752 -n 4 -e 9.979285
s 6.933632000 _3_ MAC  --- 0 BCN 12 [0 ffffffff 3 0] [energy 9.979504 ei 0.019 es 0.000 et 0.002 er 0.000] 
N -t 6.933632 -n 0 -e 9.978103
N -t 6.933632 -n 4 -e 9.978911
s 7.055680000 _1_ MAC  --- 0 CM7 8 [0 ffffffff 1 0] [energy 9.979046 ei 0.020 es 0.000 et 0.001 er 0.000] 
N -t 7.055680 -n 2 -e 9.978945
N -t 7.055680 -n 0 -e 9.977739
s 7.056512000 _3_ MAC  --- 0 BCN 12 [0 ffffffff 3 0] [energy 9.979135 ei 0.019 es 0.000 et 0.002 er 0.000] 
N -t 7.056512 -n 0 -e 9.977705
N -t 7.056512 -n 4 -e 9.978537
s 7.179392000 _3_ MAC  --- 0 BCN 12 [0 ffffffff 3 0] [energy 9.978766 ei 0.020 es 0.000 et 0.002 er 0.000] 
N -t 7.179392 -n 0 -e 9.977331
N -t 7.179392 -n 4 -e 9.978163
s 7.302272000 _3_ MAC  --- 0 BCN 12 [0 ffffffff 3 0] [energy 9.978397 ei 0.020 es 0.000 et 0.002 er 0.000] 
N -t 7.302272 -n 0 -e 9.976958
N -t 7.302272 -n 4 -e 9.977789
D 7.302848050 _4_ MAC  ERR 0 BCN 12 [0 ffffffff 3 0] [energy 9.977789 ei 0.020 es 0.000 et 0.000 er 0.002] 
s 7.318720000 _1_ MAC  --- 0 CM7 8 [0 ffffffff 1 0] [energy 9.978275 ei 0.020 es 0.000 et 0.001 er 0.000] 
N -t 7.318720 -n 2 -e 9.978187
N -t 7.318720 -n 0 -e 9.976888
s 7.425152000 _3_ MAC  --- 0 BCN 12 [0 ffffffff 3 0] [energy 9.978028 ei 0.020 es 0.000 et 0.002 er 0.000] 
N -t 7.425152 -n 0 -e 9.976560
N -t 7.425152 -n 4 -e 9.977416
s 7.548032000 _3_ MAC  --- 0 BCN 12 [0 ffffffff 3 0] [energy 9.977660 ei 0.021 es 0.000 et 0.002 er 0.000] 
N -t 7.548032 -n 0 -e 9.976186
N -t 7.548032 -n 4 -e 9.977042
s 7.670912000 _3_ MAC  --- 0 BCN 12 [0 ffffffff 3 0] [energy 9.977291 ei 0.021 es 0.000 et 0.002 er 0.000] 
N -t 7.670912 -n 0 -e 9.975812
N -t 7.670912 -n 4 -e 9.976668
s 7.793792000 _3_ MAC  --- 0 BCN 12 [0 ffffffff 3 0] [energy 9.976922 ei 0.021 es 0.000 et 0.002 er 0.000] 
N -t 7.793792 -n 0 -e 9.975438
N -t 7.793792 -n 4 -e 9.976294
s 7.916672000 _3_ MAC  --- 0 BCN 12 [0 ffffffff 3 0] [energy 9.976553 ei 0.022 es 0.000 et 0.002 er 0.000] 
N -t 7.916672 -n 0 -e 9.975065
N -t 7.916672 -n 4 -e 9.975921
s 8.039552000 _3_ MAC  --- 0 BCN 12 [0 ffffffff 3 0] [energy 9.976184 ei 0.022 es 0.000 et 0.002 er 0.000] 
N -t 8.039552 -n 0 -e 9.974691
N -t 8.039552 -n 4 -e 9.975547
D 8.040128050 _4_ MAC  ERR 0 BCN 12 [0 ffffffff 3 0] [energy 9.975547 ei 0.022 es 0.000 et 0.000 er 0.002] 
s 8.162432000 _3_ MAC  --- 0 BCN 12 [0 ffffffff 3 0] [energy 9.975815 ei 0.022 es 0.000 et 0.002 er 0.000] 
N -t 8.162432 -n 0 -e 9.974317
N -t 8.162432 -n 4 -e 9.975173
s 8.285312000 _3_ MAC  --- 0 BCN 12 [0 ffffffff 3 0] [energy 9.975446 ei 0.023 es 0.000 et 0.002 er 0.000] 
N -t 8.285312 -n 0 -e 9.973943
N -t 8.285312 -n 4 -e 9.974799
s 8.408192000 _3_ MAC  --- 0 BCN 12 [0 ffffffff 3 0] [energy 9.975077 ei 0.023 es 0.000 et 0.002 er 0.000] 
N -t 8.408192 -n 0 -e 9.973570
N -t 8.408192 -n 4 -e 9.974426
D 8.408768050 _4_ MAC  ERR 0 BCN 12 [0 ffffffff 3 0] [energy 9.974426 ei 0.023 es 0.000 et 0.000 er 0.002] 
s 8.531072000 _3_ MAC  --- 0 BCN 12 [0 ffffffff 3 0] [energy 9.974709 ei 0.023 es 0.000 et 0.002 er 0.000] 
N -t 8.531072 -n 0 -e 9.973196
N -t 8.531072 -n 4 -e 9.974052
s 8.582400000 _1_ MAC  --- 0 CM7 8 [0 ffffffff 1 0] [energy 9.974712 ei 0.024 es 0.000 et 0.001 er 0.000] 
N -t 8.582400 -n 2 -e 9.974638
N -t 8.582400 -n 0 -e 9.973029
r 8.582848050 _2_ MAC  --- 0 CM7 8 [0 ffffffff 1 0] [energy 9.974638 ei 0.024 es 0.000 et 0.000 er 0.001] 
r 8.582848050 _0_ MAC  --- 0 CM7 8 [0 ffffffff 1 0] [energy 9.973029 ei 0.024 es 0.000 et 0.000 er 0.003] 
s 8.653952000 _3_ MAC  --- 0 BCN 12 [0 ffffffff 3 0] [energy 9.974340 ei 0.024 es 0.000 et 0.002 er 0.000] 
N -t 8.653952 -n 0 -e 9.972798
N -t 8.653952 -n 4 -e 9.973678
s 8.776832000 _3_ MAC  --- 0 BCN 12 [0 ffffffff 3 0] [energy 9.973971 ei 0.024 es 0.000 et 0.002 er 0.000] 
N -t 8.776832 -n 0 -e 9.972424
N -t 8.776832 -n 4 -e 9.973304
s 8.844800000 _1_ MAC  --- 0 CM7 8 [0 ffffffff 1 0] [energy 9.973942 ei 0.025 es 0.000 et 0.001 er 0.000] 
N -t 8.844800 -n 2 -e 9.973881
N -t 8.844800 -n 0 -e 9.972211
s 8.899712000 _3_ MAC  --- 0 BCN 12 [0 ffffffff 3 0] [energy 9.973602 ei 0.024 es 0.000 et 0.002 er 0.000] 
N -t 8.899712 -n 0 -e 9.972026
N -t 8.899712 -n 4 -e 9.972930
s 9.022592000 _3_ MAC  --- 0 BCN 12 [0 ffffffff 3 0] [energy 9.973233 ei 0.025 es 0.000 et 0.002 er 0.000] 
N -t 9.022592 -n 0 -e 9.971653
N -t 9.022592 -n 4 -e 9.972557
s 9.107840000 _1_ MAC  --- 0 CM7 8 [0 ffffffff 1 0] [energy 9.973171 ei 0.025 es 0.000 et 0.001 er 0.000] 
N -t 9.107840 -n 2 -e 9.973124
N -t 9.107840 -n 0 -e 9.971391
s 9.145472000 _3_ MAC  --- 0 BCN 12 [0 ffffffff 3 0] [energy 9.972864 ei 0.025 es 0.000 et 0.002 er 0.000] 
N -t 9.145472 -n 0 -e 9.971255
N -t 9.145472 -n 4 -e 9.972183
s 9.268352000 _3_ MAC  --- 0 BCN 12 [0 ffffffff 3 0] [energy 9.972495 ei 0.025 es 0.000 et 0.002 er 0.000] 
N -t 9.268352 -n 0 -e 9.970881
N -t 9.268352 -n 4 -e 9.971809
s 9.391232000 _3_ MAC  --- 0 BCN 12 [0 ffffffff 3 0] [energy 9.972126 ei 0.026 es 0.000 et 0.002 er 0.000] 
N -t 9.391232 -n 0 -e 9.970507
N -t 9.391232 -n 4 -e 9.971435
s 9.514112000 _3_ MAC  --- 0 BCN 12 [0 ffffffff 3 0] [energy 9.971758 ei 0.026 es 0.000 et 0.002 er 0.000] 
N -t 9.514112 -n 0 -e 9.970133
N -t 9.514112 -n 4 -e 9.971062
s 9.636992000 _3_ MAC  --- 0 BCN 12 [0 ffffffff 3 0] [energy 9.971389 ei 0.026 es 0.000 et 0.002 er 0.000] 
N -t 9.636992 -n 0 -e 9.969760
N -t 9.636992 -n 4 -e 9.970688
D 9.637568050 _4_ MAC  ERR 0 BCN 12 [0 ffffffff 3 0] [energy 9.970688 ei 0.027 es 0.000 et 0.000 er 0.003] 
s 9.759872000 _3_ MAC  --- 0 BCN 12 [0 ffffffff 3 0] [energy 9.971020 ei 0.027 es 0.000 et 0.002 er 0.000] 
N -t 9.759872 -n 0 -e 9.969386
N -t 9.759872 -n 4 -e 9.970314
s 9.882752000 _3_ MAC  --- 0 BCN 12 [0 ffffffff 3 0] [energy 9.970651 ei 0.027 es 0.000 et 0.002 er 0.000] 
N -t 9.882752 -n 0 -e 9.969012
N -t 9.882752 -n 4 -e 9.969940
s 10.005632000 _3_ MAC  --- 0 BCN 12 [0 ffffffff 3 0] [energy 9.970282 ei 0.027 es 0.000 et 0.002 er 0.000] 
N -t 10.005632 -n 0 -e 9.968638
N -t 10.005632 -n 4 -e 9.969566
s 10.128512000 _3_ MAC  --- 0 BCN 12 [0 ffffffff 3 0] [energy 9.969913 ei 0.028 es 0.000 et 0.002 er 0.000] 
N -t 10.128512 -n 0 -e 9.968265
N -t 10.128512 -n 4 -e 9.969193
s 10.251392000 _3_ MAC  --- 0 BCN 12 [0 ffffffff 3 0] [energy 9.969544 ei 0.028 es 0.000 et 0.002 er 0.000] 
N -t 10.251392 -n 0 -e 9.967891
N -t 10.251392 -n 4 -e 9.968819
s 10.370880000 _1_ MAC  --- 0 CM7 8 [0 ffffffff 1 0] [energy 9.969610 ei 0.029 es 0.000 et 0.001 er 0.000] 
N -t 10.370880 -n 2 -e 9.969576
N -t 10.370880 -n 0 -e 9.967534
r 10.371328050 _2_ MAC  --- 0 CM7 8 [0 ffffffff 1 0] [energy 9.969576 ei 0.029 es 0.000 et 0.000 er 0.002] 
r 10.371328050 _0_ MAC  --- 0 CM7 8 [0 ffffffff 1 0] [energy 9.967534 ei 0.029 es 0.000 et 0.000 er 0.004] 
s 10.374272000 _3_ MAC  --- 0 BCN 12 [0 ffffffff 3 0] [energy 9.969175 ei 0.028 es 0.000 et 0.002 er 0.000] 
N -t 10.374272 -n 0 -e 9.967493
N -t 10.374272 -n 4 -e 9.968445
s 10.497152000 _3_ MAC  --- 0 BCN 12 [0 ffffffff 3 0] [energy 9.968806 ei 0.029 es 0.000 et 0.002 er 0.000] 
N -t 10.497152 -n 0 -e 9.967119
N -t 10.497152 -n 4 -e 9.968071
s 10.620032000 _3_ MAC  --- 0 BCN 12 [0 ffffffff 3 0] [energy 9.968438 ei 0.029 es 0.000 et 0.002 er 0.000] 
N -t 10.620032 -n 0 -e 9.966745
N -t 10.620032 -n 4 -e 9.967698