# nam4wpan #
n -t * -s 0  -x 25 -y 25 -Z 0 -z 2  -v circle -c green
n -t * -s 1  -x 10 -y 25 -Z 0 -z 2  -v circle -c green
n -t * -s 2  -x -5 -y 25 -Z 0 -z 2  -v circle -c green
n -t * -s 3  -x 40 -y 25 -Z 0 -z 2  -v circle -c green
n -t * -s 4  -x 55 -y 25 -Z 0 -z 2  -v circle -c green
V -t * -v 1.0a5 -a 0
W -t * -x 50 -y 50
A -t * -n 1 -p 0 -o 0x7fffffff -c 30 -a 1
A -t * -h 1 -m 1073741823 -s 0
v -t 0.000000000 -e set_rate_ext 3ms 1
n -t 0.000000000 -s 0 -S DLABEL -l "PAN Coor" -L ""
+ -t 0.001600000 -s 1 -d -1 -p CM7 -e 8 -c 2 -a 0 -i 0 -k MAC 
- -t 0.001600000 -s 1 -d -1 -p CM7 -e 8 -c 2 -a 0 -i 0 -k MAC
h -t 0.001600000 -s 1 -d -1 -p CM7 -e 8 -c 2 -a 0 -i 0 -k MAC -R 20.00 -D 0.00
r -t 0.002048050 -s 2 -d -1 -p CM7 -e 8 -c 2 -a 0 -i 0 -k MAC
r -t 0.002048050 -s 0 -d -1 -p CM7 -e 8 -c 2 -a 0 -i 0 -k MAC
+ -t 0.002240000 -s 3 -d -1 -p CM7 -e 8 -c 2 -a 0 -i 0 -k MAC 
- -t 0.002240000 -s 3 -d -1 -p CM7 -e 8 -c 2 -a 0 -i 0 -k MAC
h -t 0.002240000 -s 3 -d -1 -p CM7 -e 8 -c 2 -a 0 -i 0 -k MAC -R 20.00 -D 0.00
r -t 0.002688050 -s 0 -d -1 -p CM7 -e 8 -c 2 -a 0 -i 0 -k MAC
r -t 0.002688050 -s 4 -d -1 -p CM7 -e 8 -c 2 -a 0 -i 0 -k MAC
+ -t 0.142080000 -s 3 -d -1 -p CM7 -e 8 -c 2 -a 0 -i 0 -k MAC 
- -t 0.142080000 -s 3 -d -1 -p CM7 -e 8 -c 2 -a 0 -i 0 -k MAC
h -t 0.142080000 -s 3 -d -1 -p CM7 -e 8 -c 2 -a 0 -i 0 -k MAC -R 20.00 -D 0.00
+ -t 0.142400000 -s 1 -d -1 -p CM7 -e 8 -c 2 -a 0 -i 0 -k MAC 
- -t 0.142400000 -s 1 -d -1 -p CM7 -e 8 -c 2 -a 0 -i 0 -k MAC
h -t 0.142400000 -s 1 -d -1 -p CM7 -e 8 -c 2 -a 0 -i 0 -k MAC -R 20.00 -D 0.00
+ -t 0.281920000 -s 3 -d -1 -p CM7 -e 8 -c 2 -a 0 -i 0 -k MAC 
- -t 0.281920000 -s 3 -d -1 -p CM7 -e 8 -c 2 -a 0 -i 0 -k MAC
h -t 0.281920000 -s 3 -d -1 -p CM7 -e 8 -c 2 -a 0 -i 0 -k MAC -R 20.00 -D 0.00
+ -t 0.282240000 -s 1 -d -1 -p CM7 -e 8 -c 2 -a 0 -i 0 -k MAC 
- -t 0.282240000 -s 1 -d -1 -p CM7 -e 8 -c 2 -a 0 -i 0 -k MAC
h -t 0.282240000 -s 1 -d -1 -p CM7 -e 8 -c 2 -a 0 -i 0 -k MAC -R 20.00 -D 0.00
+ -t 0.420992000 -s 3 -d -1 -p BCN -e 12 -c 2 -a 0 -i 0 -k MAC 
- -t 0.420992000 -s 3 -d -1 -p BCN -e 12 -c 2 -a 0 -i 0 -k MAC
h -t 0.420992000 -s 3 -d -1 -p BCN -e 12 -c 2 -a 0 -i 0 -k MAC -R 20.00 -D 0.00
+ -t 0.421312000 -s 1 -d -1 -p BCN -e 12 -c 2 -a 0 -i 0 -k MAC 
- -t 0.421312000 -s 1 -d -1 -p BCN -e 12 -c 2 -a 0 -i 0 -k MAC
h -t 0.421312000 -s 1 -d -1 -p BCN -e 12 -c 2 -a 0 -i 0 -k MAC -R 20.00 -D 0.00
d -t 0.421568050 -s 0 -d -1 -p BCN -e 12 -c 2 -a 0 -i 0 -k MAC
+ -t 0.543872000 -s 3 -d -1 -p BCN -e 12 -c 2 -a 0 -i 0 -k MAC 
- -t 0.543872000 -s 3 -d -1 -p BCN -e 12 -c 2 -a 0 -i 0 -k MAC
h -t 0.543872000 -s 3 -d -1 -p BCN -e 12 -c 2 -a 0 -i 0 -k MAC -R 20.00 -D 0.00
+ -t 0.544192000 -s 1 -d -1 -p BCN -e 12 -c 2 -a 0 -i 0 -k MAC 
- -t 0.544192000 -s 1 -d -1 -p BCN -e 12 -c 2 -a 0 -i 0 -k MAC
h -t 0.544192000 -s 1 -d -1 -p BCN -e 12 -c 2 -a 0 -i 0 -k MAC -R 20.00 -D 0.00
d -t 0.544448050 -s 0 -d -1 -p BCN -e 12 -c 2 -a 0 -i 0 -k MAC
+ -t 0.666752000 -s 3 -d -1 -p BCN -e 12 -c 2 -a 0 -i 0 -k MAC 
- -t 0.666752000 -s 3 -d -1 -p BCN -e 12 -c 2 -a 0 -i 0 -k MAC
h -t 0.666752000 -s 3 -d -1 -p BCN -e 12 -c 2 -a 0 -i 0 -k MAC -R 20.00 -D 0.00
+ -t 0.667072000 -s 1 -d -1 -p BCN -e 12 -c 2 -a 0 -i 0 -k MAC 
- -t 0.667072000 -s 1 -d -1 -p BCN -e 12 -c 2 -a 0 -i 0 -k MAC
h -t 0.667072000 -s 1 -d -1 -p BCN -e 12 -c 2 -a 0 -i 0 -k MAC -R 20.00 -D 0.00
d -t 0.667328050 -s 0 -d -1 -p BCN -e 12 -c 2 -a 0 -i 0 -k MAC
+ -t 0.789632000 -s 3 -d -1 -p BCN -e 12 -c 2 -a 0 -i 0 -k MAC 
- -t 0.789632000 -s 3 -d -1 -p BCN -e 12 -c 2 -a 0 -i 0 -k MAC
h -t 0.789632000 -s 3 -d -1 -p BCN -e 12 -c 2 -a 0 -i 0 -k MAC -R 20.00 -D 0.00
+ -t 0.789952000 -s 1 -d -1 -p BCN -e 12 -c 2 -a 0 -i 0 -k MAC 
- -t 0.789952000 -s 1 -d -1 -p BCN -e 12 -c 2 -a 0 -i 0 -k MAC
h -t 0.789952000 -s 1 -d -1 -p BCN -e 12 -c 2 -a 0 -i 0 -k MAC -R 20.00 -D 0.00
d -t 0.790208050 -s 0 -d -1 -p BCN -e 12 -c 2 -a 0 -i 0 -k MAC
+ -t 0.912512000 -s 3 -d -1 -p BCN -e 12 -c 2 -a 0 -i 0 -k MAC 
- -t 0.912512000 -s 3 -d -1 -p BCN -e 12 -c 2 -a 0 -i 0 -k MAC
h -t 0.912512000 -s 3 -d -1 -p BCN -e 12 -c 2 -a 0 -i 0 -k MAC -R 20.00 -D 0.00
+ -t 0.912832000 -s 1 -d -1 -p BCN -e 12 -c 2 -a 0 -i 0 -k MAC 
- -t 0.912832000 -s 1 -d -1 -p BCN -e 12 -c 2 -a 0 -i 0 -k MAC
h -t 0.912832000 -s 1 -d -1 -p BCN -e 12 -c 2 -a 0 -i 0 -k MAC -R 20.00 -D 0.00
d -t 0.913088050 -s 0 -d -1 -p BCN -e 12 -c 2 -a 0 -i 0 -k MAC
+ -t 1.035392000 -s 3 -d -1 -p BCN -e 12 -c 2 -a 0 -i 0 -k MAC 
- -t 1.035392000 -s 3 -d -1 -p BCN -e 12 -c 2 -a 0 -i 0 -k MAC
h -t 1.035392000 -s 3 -d -1 -p BCN -e 12 -c 2 -a 0 -i 0 -k MAC -R 20.00 -D 0.00
+ -t 1.035712000 -s 1 -d -1 -p BCN -e 12 -c 2 -a 0 -i 0 -k MAC 
- -t 1.035712000 -s 1 -d -1 -p BCN -e 12 -c 2 -a 0 -i 0 -k MAC
h -t 1.035712000 -s 1 -d -1 -p BCN -e 12 -c 2 -a 0 -i 0 -k MAC -R 20.00 -D 0.00
d -t 1.035968050 -s 0 -d -1 -p BCN -e 12 -c 2 -a 0 -i 0 -k MAC
+ -t 1.158272000 -s 3 -d -1 -p BCN -e 12 -c 2 -a 0 -i 0 -k MAC 
- -t 1.158272000 -s 3 -d -1 -p BCN -e 12 -c 2 -a 0 -i 0 -k MAC
h -t 1.158272000 -s 3 -d -1 -p BCN -e 12 -c 2 -a 0 -i 0 -k MAC -R 20.00 -D 0.00
+ -t 1.158592000 -s 1 -d -1 -p BCN -e 12 -c 2 -a 0 -i 0 -k MAC 
- -t 1.158592000 -s 1 -d -1 -p BCN -e 12 -c 2 -a 0 -i 0 -k MAC
h -t 1.158592000 -s 1 -d -1 -p BCN -e 12 -c 2 -a 0 -i 0 -k MAC -R 20.00 -D 0.00
d -t 1.158848050 -s 0 -d -1 -p BCN -e 12 -c 2 -a 0 -i 0 -k MAC
+ -t 1.281152000 -s 3 -d -1 -p BCN -e 12 -c 2 -a 0 -i 0 -k MAC 
- -t 1.281152000 -s 3 -d -1 -p BCN -e 12 -c 2 -a 0 -i 0 -k MAC
h -t 1.281152000 -s 3 -d -1 -p BCN -e 12 -c 2 -a 0 -i 0 -k MAC -R 20.00 -D 0.00
+ -t 1.281472000 -s 1 -d -1 -p BCN -e 12 -c 2 -a 0 -i 0 -k MAC 
- -t 1.281472000 -s 1 -d -1 -p BCN -e 12 -c 2 -a 0 -i 0 -k MAC
h -t 1.281472000 -s 1 -d -1 -p BCN -e 12 -c 2 -a 0 -i 0 -k MAC -R 20.00 -D 0.00
d -t 1.281728050 -s 0 -d -1 -p BCN -e 12 -c 2 -a 0 -i 0 -k MAC
+ -t 1.404032000 -s 3 -d -1 -p BCN -e 12 -c 2 -a 0 -i 0 -k MAC 
- -t 1.404032000 -s 3 -d -1 -p BCN -e 12 -c 2 -a 0 -i 0 -k MAC
h -t 1.404032000 -s 3 -d -1 -p BCN -e 12 -c 2 -a 0 -i 0 -k MAC -R 20.00 -D 0.00
+ -t 1.404352000 -s 1 -d -1 -p BCN -e 12 -c 2 -a 0 -i 0 -k MAC 
- -t 1.404352000 -s 1 -d -1 -p BCN -e 12 -c 2 -a 0 -i 0 -k MAC
h -t 1.404352000 -s 1 -d -1 -p BCN -e 12 -c 2 -a 0 -i 0 -k MAC -R 20.00 -D 0.00
d -t 1.404608050 -s 0 -d -1 -p BCN -e 12 -c 2 -a 0 -i 0 -k MAC
+ -t 1.526912000 -s 3 -d -1 -p BCN -e 12 -c 2 -a 0 -i 0 -k MAC 
- -t 1.526912000 -s 3 -d -1 -p BCN -e 12 -c 2 -a 0 -i 0 -k MAC
h -t 1.526912000 -s 3 -d -1 -p BCN -e 12 -c 2 -a 0 -i 0 -k MAC -R 20.00 -D 0.00
+ -t 1.527232000 -s 1 -d -1 -p BCN -e 12 -c 2 -a 0 -i 0 -k MAC 
- -t 1.527232000 -s 1 -d -1 -p BCN -e 12 -c 2 -a 0 -i 0 -k MAC
h -t 1.527232000 -s 1 -d -1 -p BCN -e 12 -c 2 -a 0 -i 0 -k MAC -R 20.00 -D 0.00
d -t 1.527488050 -s 0 -d -1 -p BCN -e 12 -c 2 -a 0 -i 0 -k MAC
+ -t 1.649792000 -s 3 -d -1 -p BCN -e 12 -c 2 -a 0 -i 0 -k MAC 
- -t 1.649792000 -s 3 -d -1 -p BCN -e 12 -c 2 -a 0 -i 0 -k MAC
h -t 1.649792000 -s 3 -d -1 -p BCN -e 12 -c 2 -a 0 -i 0 -k MAC -R 20.00 -D 0.00
+ -t 1.650112000 -s 1 -d -1 -p BCN -e 12 -c 2 -a 0 -i 0 -k MAC 
- -t 1.650112000 -s 1 -d -1 -p BCN -e 12 -c 2 -a 0 -i 0 -k MAC
h -t 1.650112000 -s 1 -d -1 -p BCN -e 12 -c 2 -a 0 -i 0 -k MAC -R 20.00 -D 0.00
d -t 1.650368050 -s 0 -d -1 -p BCN -e 12 -c 2 -a 0 -i 0 -k MAC
+ -t 1.772672000 -s 3 -d -1 -p BCN -e 12 -c 2 -a 0 -i 0 -k MAC 
- -t 1.772672000 -s 3 -d -1 -p BCN -e 12 -c 2 -a 0 -i 0 -k MAC
h -t 1.772672000 -s 3 -d -1 -p BCN -e 12 -c 2 -a 0 -i 0 -k MAC -R 20.00 -D 0.00
+ -t 1.772992000 -s 1 -d -1 -p BCN -e 12 -c 2 -a 0 -i 0 -k MAC 
- -t 1.772992000 -s 1 -d -1 -p BCN -e 12 -c 2 -a 0 -i 0 -k MAC
h -t 1.772992000 -s 1 -d -1 -p BCN -e 12 -c 2 -a 0 -i 0 -k MAC -R 20.00 -D 0.00
d -t 1.773248050 -s 0 -d -1 -p BCN -e 12 -c 2 -a 0 -i 0 -k MAC
+ -t 1.895552000 -s 3 -d -1 -p BCN -e 12 -c 2 -a 0 -i 0 -k MAC 
- -t 1.895552000 -s 3 -d -1 -p BCN -e 12 -c 2 -a 0 -i 0 -k MAC
h -t 1.895552000 -s 3 -d -1 -p BCN -e 12 -c 2 -a 0 -i 0 -k MAC -R 20.00 -D 0.00
+ -t 1.895872000 -s 1 -d -1 -p BCN -e 12 -c 2 -a 0 -i 0 -k MAC 
- -t 1.895872000 -s 1 -d -1 -p BCN -e 12 -c 2 -a 0 -i 0 -k MAC
h -t 1.895872000 -s 1 -d -1 -p BCN -e 12 -c 2 -a 0 -i 0 -k MAC -R 20.00 -D 0.00
d -t 1.896128050 -s 0 -d -1 -p BCN -e 12 -c 2 -a 0 -i 0 -k MAC
+ -t 2.018432000 -s 3 -d -1 -p BCN -e 12 -c 2 -a 0 -i 0 -k MAC 
- -t 2.018432000 -s 3 -d -1 -p BCN -e 12 -c 2 -a 0 -i 0 -k MAC
h -t 2.018432000 -s 3 -d -1 -p BCN -e 12 -c 2 -a 0 -i 0 -k MAC -R 20.00 -D 0.00
+ -t 2.018752000 -s 1 -d -1 -p BCN -e 12 -c 2 -a 0 -i 0 -k MAC 
- -t 2.018752000 -s 1 -d -1 -p BCN -e 12 -c 2 -a 0 -i 0 -k MAC
h -t 2.018752000 -s 1 -d -1 -p BCN -e 12 -c 2 -a 0 -i 0 -k MAC -R 20.00 -D 0.00
d -t 2.019008050 -s 0 -d -1 -p BCN -e 12 -c 2 -a 0 -i 0 -k MAC
+ -t 2.141312000 -s 3 -d -1 -p BCN -e 12 -c 2 -a 0 -i 0 -k MAC 
- -t 2.141312000 -s 3 -d -1 -p BCN -e 12 -c 2 -a 0 -i 0 -k MAC
h -t 2.141312000 -s 3 -d -1 -p BCN -e 12 -c 2 -a 0 -i 0 -k MAC -R 20.00 -D 0.00
+ -t 2.141632000 -s 1 -d -1 -p BCN -e 12 -c 2 -a 0 -i 0 -k MAC 
- -t 2.141632000 -s 1 -d -1 -p BCN -e 12 -c 2 -a 0 -i 0 -k MAC
h -t 2.141632000 -s 1 -d -1 -p BCN -e 12 -c 2 -a 0 -i 0 -k MAC -R 20.00 -D 0.00
d -t 2.141888050 -s 0 -d -1 -p BCN -e 12 -c 2 -a 0 -i 0 -k MAC
+ -t 2.264192000 -s 3 -d -1 -p BCN -e 12 -c 2 -a 0 -i 0 -k MAC 
- -t 2.264192000 -s 3 -d -1 -p BCN -e 12 -c 2 -a 0 -i 0 -k MAC
h -t 2.264192000 -s 3 -d -1 -p BCN -e 12 -c 2 -a 0 -i 0 -k MAC -R 20.00 -D 0.00
+ -t 2.264512000 -s 1 -d -1 -p BCN -e 12 -c 2 -a 0 -i 0 -k MAC 
- -t 2.264512000 -s 1 -d -1 -p BCN -e 12 -c 2 -a 0 -i 0 -k MAC
h -t 2.264512000 -s 1 -d -1 -p BCN -e 12 -c 2 -a 0 -i 0 -k MAC -R 20.00 -D 0.00
d -t 2.264768050 -s 0 -d -1 -p BCN -e 12 -c 2 -a 0 -i 0 -k MAC
+ -t 2.387072000 -s 3 -d -1 -p BCN -e 12 -c 2 -a 0 -i 0 -k MAC 
- -t 2.387072000 -s 3 -d -1 -p BCN -e 12 -c 2 -a 0 -i 0 -k MAC
h -t 2.387072000 -s 3 -d -1 -p BCN -e 12 -c 2 -a 0 -i 0 -k MAC -R 20.00 -D 0.00
+ -t 2.387392000 -s 1 -d -1 -p BCN -e 12 -c 2 -a 0 -i 0 -k MAC 
- -t 2.387392000 -s 1 -d -1 -p BCN -e 12 -c 2 -a 0 -i 0 -k MAC
h -t 2.387392000 -s 1 -d -1 -p BCN -e 12 -c 2 -a 0 -i 0 -k MAC -R 20.00 -D 0.00
d -t 2.387648050 -s 0 -d -1 -p BCN -e 12 -c 2 -a 0 -i 0 -k MAC
+ -t 2.509952000 -s 3 -d -1 -p BCN -e 12 -c 2 -a 0 -i 0 -k MAC 
- -t 2.509952000 -s 3 -d -1 -p BCN -e 12 -c 2 -a 0 -i 0 -k MAC
h -t 2.509952000 -s 3 -d -1 -p BCN -e 12 -c 2 -a 0 -i 0 -k MAC -R 20.00 -D 0.00
+ -t 2.510272000 -s 1 -d -1 -p BCN -e 12 -c 2 -a 0 -i 0 -k MAC 
- -t 2.510272000 -s 1 -d -1 -p BCN -e 12 -c 2 -a 0 -i 0 -k MAC
h -t 2.510272000 -s 1 -d -1 -p BCN -e 12 -c 2 -a 0 -i 0 -k MAC -R 20.00 -D 0.00
d -t 2.510528050 -s 0 -d -1 -p BCN -e 12 -c 2 -a 0 -i 0 -k MAC
+ -t 2.632832000 -s 3 -d -1 -p BCN -e 12 -c 2 -a 0 -i 0 -k MAC 
- -t 2.632832000 -s 3 -d -1 -p BCN -e 12 -c 2 -a 0 -i 0 -k MAC
h -t 2.632832000 -s 3 -d -1 -p BCN -e 12 -c 2 -a 0 -i 0 -k MAC -R 20.00 -D 0.00
+ -t 2.633152000 -s 1 -d -1 -p BCN -e 12 -c 2 -a 0 -i 0 -k MAC 
- -t 2.633152000 -s 1 -d -1 -p BCN -e 12 -c 2 -a 0 -i 0 -k MAC
h -t 2.633152000 -s 1 -d -1 -p BCN -e 12 -c 2 -a 0 -i 0 -k MAC -R 20.00 -D 0.00
d -t 2.633408050 -s 0 -d -1 -p BCN -e 12 -c 2 -a 0 -i 0 -k MAC
+ -t 2.755712000 -s 3 -d -1 -p BCN -e 12 -c 2 -a 0 -i 0 -k MAC 
- -t 2.755712000 -s 3 -d -1 -p BCN -e 12 -c 2 -a 0 -i 0 -k MAC
h -t 2.755712000 -s 3 -d -1 -p BCN -e 12 -c 2 -a 0 -i 0 -k MAC -R 20.00 -D 0.00
+ -t 2.756032000 -s 1 -d -1 -p BCN -e 12 -c 2 -a 0 -i 0 -k MAC 
- -t 2.756032000 -s 1 -d -1 -p BCN -e 12 -c 2 -a 0 -i 0 -k MAC
h -t 2.756032000 -s 1 -d -1 -p BCN -e 12 -c 2 -a 0 -i 0 -k MAC -R 20.00 -D 0.00
d -t 2.756288050 -s 0 -d -1 -p BCN -e 12 -c 2 -a 0 -i 0 -k MAC
d -t 2.756288050 -s 4 -d -1 -p BCN -e 12 -c 2 -a 0 -i 0 -k MAC
+ -t 2.878592000 -s 3 -d -1 -p BCN -e 12 -c 2 -a 0 -i 0 -k MAC 
- -t 2.878592000 -s 3 -d -1 -p BCN -e 12 -c 2 -a 0 -i 0 -k MAC
h -t 2.878592000 -s 3 -d -1 -p BCN -e 12 -c 2 -a 0 -i 0 -k MAC -R 20.00 -D 0.00
+ -t 2.878912000 -s 1 -d -1 -p BCN -e 12 -c 2 -a 0 -i 0 -k MAC 
- -t 2.878912000 -s 1 -d -1 -p BCN -e 12 -c 2 -a 0 -i 0 -k MAC
h -t 2.878912000 -s 1 -d -1 -p BCN -e 12 -c 2 -a 0 -i 0 -k MAC -R 20.00 -D 0.00
d -t 2.879168050 -s 0 -d -1 -p BCN -e 12 -c 2 -a 0 -i 0 -k MAC
+ -t 3.001472000 -s 3 -d -1 -p BCN -e 12 -c 2 -a 0 -i 0 -k MAC 
- -t 3.001472000 -s 3 -d -1 -p BCN -e 12 -c 2 -a 0 -i 0 -k MAC
h -t 3.001472000 -s 3 -d -1 -p BCN -e 12 -c 2 -a 0 -i 0 -k MAC -R 20.00 -D 0.00
+ -t 3.001792000 -s 1 -d -1 -p BCN -e 12 -c 2 -a 0 -i 0 -k MAC 
- -t 3.001792000 -s 1 -d -1 -p BCN -e 12 -c 2 -a 0 -i 0 -k MAC
h -t 3.001792000 -s 1 -d -1 -p BCN -e 12 -c 2 -a 0 -i 0 -k MAC -R 20.00 -D 0.00
d -t 3.002048050 -s 0 -d -1 -p BCN -e 12 -c 2 -a 0 -i 0 -k MAC
+ -t 3.124352000 -s 3 -d -1 -p BCN -e 12 -c 2 -a 0 -i 0 -k MAC 
- -t 3.124352000 -s 3 -d -1 -p BCN -e 12 -c 2 -a 0 -i 0 -k MAC
h -t 3.124352000 -s 3 -d -1 -p BCN -e 12 -c 2 -a 0 -i 0 -k MAC -R 20.00 -D 0.00
+ -t 3.124672000 -s 1 -d -1 -p BCN -e 12 -c 2 -a 0 -i 0 -k MAC 
- -t 3.124672000 -s 1 -d -1 -p BCN -e 12 -c 2 -a 0 -i 0 -k MAC
h -t 3.124672000 -s 1 -d -1 -p BCN -e 12 -c 2 -a 0 -i 0 -k MAC -R 20.00 -D 0.00
d -t 3.124928050 -s 0 -d -1 -p BCN -e 12 -c 2 -a 0 -i 0 -k MAC
+ -t 3.247232000 -s 3 -d -1 -p BCN -e 12 -c 2 -a 0 -i 0 -k MAC 
- -t 3.247232000 -s 3 -d -1 -p BCN -e 12 -c 2 -a 0 -i 0 -k MAC
h -t 3.247232000 -s 3 -d -1 -p BCN -e 12 -c 2 -a 0 -i 0 -k MAC -R 20.00 -D 0.00
+ -t 3.247552000 -s 1 -d -1 -p BCN -e 12 -c 2 -a 0 -i 0 -k MAC 
- -t 3.247552000 -s 1 -d -1 -p BCN -e 12 -c 2 -a 0 -i 0 -k MAC
h -t 3.247552000 -s 1 -d -1 -p BCN -e 12 -c 2 -a 0 -i 0 -k MAC -R 20.00 -D 0.00
d -t 3.247808050 -s 0 -d -1 -p BCN -e 12 -c 2 -a 0 -i 0 -k MAC
+ -t 3.370112000 -s 3 -d -1 -p BCN -e 12 -c 2 -a 0 -i 0 -k MAC 
- -t 3.370112000 -s 3 -d -1 -p BCN -e 12 -c 2 -a 0 -i 0 -k MAC
h -t 3.370112000 -s 3 -d -1 -p BCN -e 12 -c 2 -a 0 -i 0 -k MAC -R 20.00 -D 0.00
+ -t 3.370432000 -s 1 -d -1 -p BCN -e 12 -c 2 -a 0 -i 0 -k MAC 
- -t 3.370432000 -s 1 -d -1 -p BCN -e 12 -c 2 -a 0 -i 0 -k MAC
h -t 3.370432000 -s 1 -d -1 -p BCN -e 12 -c 2 -a 0 -i 0 -k MAC -R 20.00 -D 0.00
d -t 3.370688050 -s 0 -d -1 -p BCN -e 12 -c 2 -a 0 -i 0 -k MAC
+ -t 3.492992000 -s 3 -d -1 -p BCN -e 12 -c 2 -a 0 -i 0 -k MAC 
- -t 3.492992000 -s 3 -d -1 -p BCN -e 12 -c 2 -a 0 -i 0 -k MAC
h -t 3.492992000 -s 3 -d -1 -p BCN -e 12 -c 2 -a 0 -i 0 -k MAC -R 20.00 -D 0.00
+ -t 3.493312000 -s 1 -d -1 -p BCN -e 12 -c 2 -a 0 -i 0 -k MAC 
- -t 3.493312000 -s 1 -d -1 -p BCN -e 12 -c 2 -a 0 -i 0 -k MAC
h -t 3.493312000 -s 1 -d -1 -p BCN -e 12 -c 2 -a 0 -i 0 -k MAC -R 20.00 -D 0.00
d -t 3.493568050 -s 0 -d -1 -p BCN -e 12 -c 2 -a 0 -i 0 -k MAC
+ -t 3.615872000 -s 3 -d -1 -p BCN -e 12 -c 2 -a 0 -i 0 -k MAC 
- -t 3.615872000 -s 3 -d -1 -p BCN -e 12 -c 2 -a 0 -i 0 -k MAC
h -t 3.615872000 -s 3 -d -1 -p BCN -e 12 -c 2 -a 0 -i 0 -k MAC -R 20.00 -D 0.00
+ -t 3.616192000 -s 1 -d -1 -p BCN -e 12 -c 2 -a 0 -i 0 -k MAC 
- -t 3.616192000 -s 1 -d -1 -p BCN -e 12 -c 2 -a 0 -i 0 -k MAC
h -t 3.616192000 -s 1 -d -1 -p BCN -e 12 -c 2 -a 0 -i 0 -k MAC -R 20.00 -D 0.00
d -t 3.616448050 -s 0 -d -1 -p BCN -e 12 -c 2 -a 0 -i 0 -k MAC
+ -t 3.738752000 -s 3 -d -1 -p BCN -e 12 -c 2 -a 0 -i 0 -k MAC 
- -t 3.738752000 -s 3 -d -1 -p BCN -e 12 -c 2 -a 0 -i 0 -k MAC
h -t 3.738752000 -s 3 -d -1 -p BCN -e 12 -c 2 -a 0 -i 0 -k MAC -R 20.00 -D 0.00
+ -t 3.739072000 -s 1 -d -1 -p BCN -e 12 -c 2 -a 0 -i 0 -k MAC 
- -t 3.739072000 -s 1 -d -1 -p BCN -e 12 -c 2 -a 0 -i 0 -k MAC
h -t 3.739072000 -s 1 -d -1 -p BCN -e 12 -c 2 -a 0 -i 0 -k MAC -R 20.00 -D 0.00
d -t 3.739328050 -s 0 -d -1 -p BCN -e 12 -c 2 -a 0 -i 0 -k MAC
+ -t 3.861632000 -s 3 -d -1 -p BCN -e 12 -c 2 -a 0 -i 0 -k MAC 
- -t 3.861632000 -s 3 -d -1 -p BCN -e 12 -c 2 -a 0 -i 0 -k MAC
h -t 3.861632000 -s 3 -d -1 -p BCN -e 12 -c 2 -a 0 -i 0 -k MAC -R 20.00 -D 0.00
+ -t 3.861952000 -s 1 -d -1 -p BCN -e 12 -c 2 -a 0 -i 0 -k MAC 
- -t 3.861952000 -s 1 -d -1 -p BCN -e 12 -c 2 -a 0 -i 0 -k MAC
h -t 3.861952000 -s 1 -d -1 -p BCN -e 12 -c 2 -a 0 -i 0 -k MAC -R 20.00 -D 0.00
d -t 3.862208050 -s 0 -d -1 -p BCN -e 12 -c 2 -a 0 -i 0 -k MAC
+ -t 3.984512000 -s 3 -d -1 -p BCN -e 12 -c 2 -a 0 -i 0 -k MAC 
- -t 3.984512000 -s 3 -d -1 -p BCN -e 12 -c 2 -a 0 -i 0 -k MAC
h -t 3.984512000 -s 3 -d -1 -p BCN -e 12 -c 2 -a 0 -i 0 -k MAC -R 20.00 -D 0.00
+ -t 3.984832000 -s 1 -d -1 -p BCN -e 12 -c 2 -a 0 -i 0 -k MAC 
- -t 3.984832000 -s 1 -d -1 -p BCN -e 12 -c 2 -a 0 -i 0 -k MAC
h -t 3.984832000 -s 1 -d -1 -p BCN -e 12 -c 2 -a 0 -i 0 -k MAC -R 20.00 -D 0.00
d -t 3.985088050 -s 0 -d -1 -p BCN -e 12 -c 2 -a 0 -i 0 -k MAC
+ -t 4.107392000 -s 3 -d -1 -p BCN -e 12 -c 2 -a 0 -i 0 -k MAC 
- -t 4.107392000 -s 3 -d -1 -p BCN -e 12 -c 2 -a 0 -i 0 -k MAC
h -t 4.107392000 -s 3 -d -1 -p BCN -e 12 -c 2 -a 0 -i 0 -k MAC -R 20.00 -D 0.00
+ -t 4.107712000 -s 1 -d -1 -p BCN -e 12 -c 2 -a 0 -i 0 -k MAC 
- -t 4.107712000 -s 1 -d -1 -p BCN -e 12 -c 2 -a 0 -i 0 -k MAC
h -t 4.107712000 -s 1 -d -1 -p BCN -e 12 -c 2 -a 0 -i 0 -k MAC -R 20.00 -D 0.00
d -t 4.107968050 -s 0 -d -1 -p BCN -e 12 -c 2 -a 0 -i 0 -k MAC
d -t 4.108288050 -s 2 -d -1 -p BCN -e 12 -c 2 -a 0 -i 0 -k MAC
+ -t 4.230272000 -s 3 -d -1 -p BCN -e 12 -c 2 -a 0 -i 0 -k MAC 
- -t 4.230272000 -s 3 -d -1 -p BCN -e 12 -c 2 -a 0 -i 0 -k MAC
h -t 4.230272000 -s 3 -d -1 -p BCN -e 12 -c 2 -a 0 -i 0 -k MAC -R 20.00 -D 0.00
+ -t 4.230592000 -s 1 -d -1 -p BCN -e 12 -c 2 -a 0 -i 0 -k MAC 
- -t 4.230592000 -s 1 -d -1 -p BCN -e 12 -c 2 -a 0 -i 0 -k MAC
h -t 4.230592000 -s 1 -d -1 -p BCN -e 12 -c 2 -a 0 -i 0 -k MAC -R 20.00 -D 0.00
d -t 4.230848050 -s 0 -d -1 -p BCN -e 12 -c 2 -a 0 -i 0 -k MAC
+ -t 4.353152000 -s 3 -d -1 -p BCN -e 12 -c 2 -a 0 -i 0 -k MAC 
- -t 4.353152000 -s 3 -d -1 -p BCN -e 12 -c 2 -a 0 -i 0 -k MAC
h -t 4.353152000 -s 3 -d -1 -p BCN -e 12 -c 2 -a 0 -i 0 -k MAC -R 20.00 -D 0.00
+ -t 4.353472000 -s 1 -d -1 -p BCN -e 12 -c 2 -a 0 -i 0 -k MAC 
- -t 4.353472000 -s 1 -d -1 -p BCN -e 12 -c 2 -a 0 -i 0 -k MAC
h -t 4.353472000 -s 1 -d -1 -p BCN -e 12 -c 2 -a 0 -i 0 -k MAC -R 20.00 -D 0.00
d -t 4.353728050 -s 0 -d -1 -p BCN -e 12 -c 2 -a 0 -i 0 -k MAC
d -t 4.353728050 -s 4 -d -1 -p BCN -e 12 -c 2 -a 0 -i 0 -k MAC
+ -t 4.476032000 -s 3 -d -1 -p BCN -e 12 -c 2 -a 0 -i 0 -k MAC 
- -t 4.476032000 -s 3 -d -1 -p BCN -e 12 -c 2 -a 0 -i 0 -k MAC
h -t 4.476032000 -s 3 -d -1 -p BCN -e 12 -c 2 -a 0 -i 0 -k MAC -R 20.00 -D 0.00
+ -t 4.476352000 -s 1 -d -1 -p BCN -e 12 -c 2 -a 0 -i 0 -k MAC 
- -t 4.476352000 -s 1 -d -1 -p BCN -e 12 -c 2 -a 0 -i 0 -k MAC
h -t 4.476352000 -s 1 -d -1 -p BCN -e 12 -c 2 -a 0 -i 0 -k MAC -R 20.00 -D 0.00
d -t 4.476608050 -s 0 -d -1 -p BCN -e 12 -c 2 -a 0 -i 0 -k MAC
+ -t 4.598912000 -s 3 -d -1 -p BCN -e 12 -c 2 -a 0 -i 0 -k MAC 
- -t 4.598912000 -s 3 -d -1 -p BCN -e 12 -c 2 -a 0 -i 0 -k MAC
h -t 4.598912000 -s 3 -d -1 -p BCN -e 12 -c 2 -a 0 -i 0 -k MAC -R 20.00 -D 0.00
+ -t 4.599232000 -s 1 -d -1 -p BCN -e 12 -c 2 -a 0 -i 0 -k MAC 
- -t 4.599232000 -s 1 -d -1 -p BCN -e 12 -c 2 -a 0 -i 0 -k MAC
h -t 4.599232000 -s 1 -d -1 -p BCN -e 12 -c 2 -a 0 -i 0 -k MAC -R 20.00 -D 0.00
d -t 4.599488050 -s 0 -d -1 -p BCN -e 12 -c 2 -a 0 -i 0 -k MAC
d -t 4.599808050 -s 2 -d -1 -p BCN -e 12 -c 2 -a 0 -i 0 -k MAC
+ -t 4.721792000 -s 3 -d -1 -p BCN -e 12 -c 2 -a 0 -i 0 -k MAC 
- -t 4.721792000 -s 3 -d -1 -p BCN -e 12 -c 2 -a 0 -i 0 -k MAC
h -t 4.721792000 -s 3 -d -1 -p BCN -e 12 -c 2 -a 0 -i 0 -k MAC -R 20.00 -D 0.00
+ -t 4.722112000 -s 1 -d -1 -p BCN -e 12 -c 2 -a 0 -i 0 -k MAC 
- -t 4.722112000 -s 1 -d -1 -p BCN -e 12 -c 2 -a 0 -i 0 -k MAC
h -t 4.722112000 -s 1 -d -1 -p BCN -e 12 -c 2 -a 0 -i 0 -k MAC -R 20.00 -D 0.00
d -t 4.722368050 -s 0 -d -1 -p BCN -e 12 -c 2 -a 0 -i 0 -k MAC
+ -t 4.844672000 -s 3 -d -1 -p BCN -e 12 -c 2 -a 0 -i 0 -k MAC 
- -t 4.844672000 -s 3 -d -1 -p BCN -e 12 -c 2 -a 0 -i 0 -k MAC
h -t 4.844672000 -s 3 -d -1 -p BCN -e 12 -c 2 -a 0 -i 0 -k MAC -R 20.00 -D 0.00
+ -t 4.844992000 -s 1 -d -1 -p BCN -e 12 -c 2 -a 0 -i 0 -k MAC 
- -t 4.844992000 -s 1 -d -1 -p BCN -e 12 -c 2 -a 0 -i 0 -k MAC
h -t 4.844992000 -s 1 -d -1 -p BCN -e 12 -c 2 -a 0 -i 0 -k MAC -R 20.00 -D 0.00
d -t 4.845248050 -s 0 -d -1 -p BCN -e 12 -c 2 -a 0 -i 0 -k MAC
+ -t 4.967552000 -s 3 -d -1 -p BCN -e 12 -c 2 -a 0 -i 0 -k MAC 
- -t 4.967552000 -s 3 -d -1 -p BCN -e 12 -c 2 -a 0 -i 0 -k MAC
h -t 4.967552000 -s 3 -d -1 -p BCN -e 12 -c 2 -a 0 -i 0 -k MAC -R 20.00 -D 0.00
+ -t 4.967872000 -s 1 -d -1 -p BCN -e 12 -c 2 -a 0 -i 0 -k MAC 
- -t 4.967872000 -s 1 -d -1 -p BCN -e 12 -c 2 -a 0 -i 0 -k MAC
h -t 4.967872000 -s 1 -d -1 -p BCN -e 12 -c 2 -a 0 -i 0 -k MAC -R 20.00 -D 0.00
d -t 4.968128050 -s 0 -d -1 -p BCN -e 12 -c 2 -a 0 -i 0 -k MAC
+ -t 5.002560000 -s 1 -d -1 -p CM7 -e 8 -c 2 -a 0 -i 0 -k MAC 
- -t 5.002560000 -s 1 -d -1 -p CM7 -e 8 -c 2 -a 0 -i 0 -k MAC
h -t 5.002560000 -s 1 -d -1 -p CM7 -e 8 -c 2 -a 0 -i 0 -k MAC -R 20.00 -D 0.00
r -t 5.003008050 -s 2 -d -1 -p CM7 -e 8 -c 2 -a 0 -i 0 -k MAC
r -t 5.003008050 -s 0 -d -1 -p CM7 -e 8 -c 2 -a 0 -i 0 -k MAC
+ -t 5.090432000 -s 3 -d -1 -p BCN -e 12 -c 2 -a 0 -i 0 -k MAC 
- -t 5.090432000 -s 3 -d -1 -p BCN -e 12 -c 2 -a 0 -i 0 -k MAC
h -t 5.090432000 -s 3 -d -1 -p BCN -e 12 -c 2 -a 0 -i 0 -k MAC -R 20.00 -D 0.00
d -t 5.091008050 -s 0 -d -1 -p BCN -e 12 -c 2 -a 0 -i 0 -k MAC
+ -t 5.213312000 -s 3 -d -1 -p BCN -e 12 -c 2 -a 0 -i 0 -k MAC 
- -t 5.213312000 -s 3 -d -1 -p BCN -e 12 -c 2 -a 0 -i 0 -k MAC
h -t 5.213312000 -s 3 -d -1 -p BCN -e 12 -c 2 -a 0 -i 0 -k MAC -R 20.00 -D 0.00
+ -t 5.266240000 -s 1 -d -1 -p CM7 -e 8 -c 2 -a 0 -i 0 -k MAC 
- -t 5.266240000 -s 1 -d -1 -p CM7 -e 8 -c 2 -a 0 -i 0 -k MAC
h -t 5.266240000 -s 1 -d -1 -p CM7 -e 8 -c 2 -a 0 -i 0 -k MAC -R 20.00 -D 0.00
+ -t 5.336192000 -s 3 -d -1 -p BCN -e 12 -c 2 -a 0 -i 0 -k MAC 
- -t 5.336192000 -s 3 -d -1 -p BCN -e 12 -c 2 -a 0 -i 0 -k MAC
h -t 5.336192000 -s 3 -d -1 -p BCN -e 12 -c 2 -a 0 -i 0 -k MAC -R 20.00 -D 0.00
+ -t 5.459072000 -s 3 -d -1 -p BCN -e 12 -c 2 -a 0 -i 0 -k MAC 
- -t 5.459072000 -s 3 -d -1 -p BCN -e 12 -c 2 -a 0 -i 0 -k MAC
h -t 5.459072000 -s 3 -d -1 -p BCN -e 12 -c 2 -a 0 -i 0 -k MAC -R 20.00 -D 0.00
+ -t 5.530560000 -s 1 -d -1 -p CM7 -e 8 -c 2 -a 0 -i 0 -k MAC 
- -t 5.530560000 -s 1 -d -1 -p CM7 -e 8 -c 2 -a 0 -i 0 -k MAC
h -t 5.530560000 -s 1 -d -1 -p CM7 -e 8 -c 2 -a 0 -i 0 -k MAC -R 20.00 -D 0.00
+ -t 5.581952000 -s 3 -d -1 -p BCN -e 12 -c 2 -a 0 -i 0 -k MAC 
- -t 5.581952000 -s 3 -d -1 -p BCN -e 12 -c 2 -a 0 -i 0 -k MAC
h -t 5.581952000 -s 3 -d -1 -p BCN -e 12 -c 2 -a 0 -i 0 -k MAC -R 20.00 -D 0.00
+ -t 5.704832000 -s 3 -d -1 -p BCN -e 12 -c 2 -a 0 -i 0 -k MAC 
- -t 5.704832000 -s 3 -d -1 -p BCN -e 12 -c 2 -a 0 -i 0 -k MAC
h -t 5.704832000 -s 3 -d -1 -p BCN -e 12 -c 2 -a 0 -i 0 -k MAC -R 20.00 -D 0.00
+ -t 5.827712000 -s 3 -d -1 -p BCN -e 12 -c 2 -a 0 -i 0 -k MAC 
- -t 5.827712000 -s 3 -d -1 -p BCN -e 12 -c 2 -a 0 -i 0 -k MAC
h -t 5.827712000 -s 3 -d -1 -p BCN -e 12 -c 2 -a 0 -i 0 -k MAC -R 20.00 -D 0.00
d -t 5.828288050 -s 0 -d -1 -p BCN -e 12 -c 2 -a 0 -i 0 -k MAC
+ -t 5.950592000 -s 3 -d -1 -p BCN -e 12 -c 2 -a 0 -i 0 -k MAC 
- -t 5.950592000 -s 3 -d -1 -p BCN -e 12 -c 2 -a 0 -i 0 -k MAC
h -t 5.950592000 -s 3 -d -1 -p BCN -e 12 -c 2 -a 0 -i 0 -k MAC -R 20.00 -D 0.00
+ -t 6.073472000 -s 3 -d -1 -p BCN -e 12 -c 2 -a 0 -i 0 -k MAC 
- -t 6.073472000 -s 3 -d -1 -p BCN -e 12 -c 2 -a 0 -i 0 -k MAC
h -t 6.073472000 -s 3 -d -1 -p BCN -e 12 -c 2 -a 0 -i 0 -k MAC -R 20.00 -D 0.00
+ -t 6.196352000 -s 3 -d -1 -p BCN -e 12 -c 2 -a 0 -i 0 -k MAC 
- -t 6.196352000 -s 3 -d -1 -p BCN -e 12 -c 2 -a 0 -i 0 -k MAC
h -t 6.196352000 -s 3 -d -1 -p BCN -e 12 -c 2 -a 0 -i 0 -k MAC -R 20.00 -D 0.00
+ -t 6.319232000 -s 3 -d -1 -p BCN -e 12 -c 2 -a 0 -i 0 -k MAC 
- -t 6.319232000 -s 3 -d -1 -p BCN -e 12 -c 2 -a 0 -i 0 -k MAC
h -t 6.319232000 -s 3 -d -1 -p BCN -e 12 -c 2 -a 0 -i 0 -k MAC -R 20.00 -D 0.00
+ -t 6.442112000 -s 3 -d -1 -p BCN -e 12 -c 2 -a 0 -i 0 -k MAC 
- -t 6.442112000 -s 3 -d -1 -p BCN -e 12 -c 2 -a 0 -i 0 -k MAC
h -t 6.442112000 -s 3 -d -1 -p BCN -e 12 -c 2 -a 0 -i 0 -k MAC -R 20.00 -D 0.00
+ -t 6.564992000 -s 3 -d -1 -p BCN -e 12 -c 2 -a 0 -i 0 -k MAC 
- -t 6.564992000 -s 3 -d -1 -p BCN -e 12 -c 2 -a 0 -i 0 -k MAC
h -t 6.564992000 -s 3 -d -1 -p BCN -e 12 -c 2 -a 0 -i 0 -k MAC -R 20.00 -D 0.00
+ -t 6.687872000 -s 3 -d -1 -p BCN -e 12 -c 2 -a 0 -i 0 -k MAC 
- -t 6.687872000 -s 3 -d -1 -p BCN -e 12 -c 2 -a 0 -i 0 -k MAC
h -t 6.687872000 -s 3 -d -1 -p BCN -e 12 -c 2 -a 0 -i 0 -k MAC -R 20.00 -D 0.00
+ -t 6.793600000 -s 1 -d -1 -p CM7 -e 8 -c 2 -a 0 -i 0 -k MAC 
- -t 6.793600000 -s 1 -d -1 -p CM7 -e 8 -c 2 -a 0 -i 0 -k MAC
h -t 6.793600000 -s 1 -d -1 -p CM7 -e 8 -c 2 -a 0 -i 0 -k MAC -R 20.00 -D 0.00
r -t 6.794048050 -s 2 -d -1 -p CM7 -e 8 -c 2 -a 0 -i 0 -k MAC
r -t 6.794048050 -s 0 -d -1 -p CM7 -e 8 -c 2 -a 0 -i 0 -k MAC
+ -t 6.810752000 -s 3 -d -1 -p BCN -e 12 -c 2 -a 0 -i 0 -k MAC 
- -t 6.810752000 -s 3 -d -1 -p BCN -e 12 -c 2 -a 0 -i 0 -k MAC
h -t 6.810752000 -s 3 -d -1 -p BCN -e 12 -c 2 -a 0 -i 0 -k MAC -R 20.00 -D 0.00
+ -t 6.933632000 -s 3 -d -1 -p BCN -e 12 -c 2 -a 0 -i 0 -k MAC 
- -t 6.933632000 -s 3 -d -1 -p BCN -e 12 -c 2 -a 0 -i 0 -k MAC
h -t 6.933632000 -s 3 -d -1 -p BCN -e 12 -c 2 -a 0 -i 0 -k MAC -R 20.00 -D 0.00
+ -t 7.055680000 -s 1 -d -1 -p CM7 -e 8 -c 2 -a 0 -i 0 -k MAC 
- -t 7.055680000 -s 1 -d -1 -p CM7 -e 8 -c 2 -a 0 -i 0 -k MAC
h -t 7.055680000 -s 1 -d -1 -p CM7 -e 8 -c 2 -a 0 -i 0 -k MAC -R 20.00 -D 0.00
+ -t 7.056512000 -s 3 -d -1 -p BCN -e 12 -c 2 -a 0 -i 0 -k MAC 
- -t 7.056512000 -s 3 -d -1 -p BCN -e 12 -c 2 -a 0 -i 0 -k MAC
h -t 7.056512000 -s 3 -d -1 -p BCN -e 12 -c 2 -a 0 -i 0 -k MAC -R 20.00 -D 0.00
+ -t 7.179392000 -s 3 -d -1 -p BCN -e 12 -c 2 -a 0 -i 0 -k MAC 
- -t 7.179392000 -s 3 -d -1 -p BCN -e 12 -c 2 -a 0 -i 0 -k MAC
h -t 7.179392000 -s 3 -d -1 -p BCN -e 12 -c 2 -a 0 -i 0 -k MAC -R 20.00 -D 0.00
+ -t 7.302272000 -s 3 -d -1 -p BCN -e 12 -c 2 -a 0 -i 0 -k MAC 
- -t 7.302272000 -s 3 -d -1 -p BCN -e 12 -c 2 -a 0 -i 0 -k MAC
h -t 7.302272000 -s 3 -d -1 -p BCN -e 12 -c 2 -a 0 -i 0 -k MAC -R 20.00 -D 0.00
d -t 7.302848050 -s 4 -d -1 -p BCN -e 12 -c 2 -a 0 -i 0 -k MAC
+ -t 7.318720000 -s 1 -d -1 -p CM7 -e 8 -c 2 -a 0 -i 0 -k MAC 
- -t 7.318720000 -s 1 -d -1 -p CM7 -e 8 -c 2 -a 0 -i 0 -k MAC
h -t 7.318720000 -s 1 -d -1 -p CM7 -e 8 -c 2 -a 0 -i 0 -k MAC -R 20.00 -D 0.00
+ -t 7.425152000 -s 3 -d -1 -p BCN -e 12 -c 2 -a 0 -i 0 -k MAC 
- -t 7.425152000 -s 3 -d -1 -p BCN -e 12 -c 2 -a 0 -i 0 -k MAC
h -t 7.425152000 -s 3 -d -1 -p BCN -e 12 -c 2 -a 0 -i 0 -k MAC -R 20.00 -D 0.00
+ -t 7.548032000 -s 3 -d -1 -p BCN -e 12 -c 2 -a 0 -i 0 -k MAC 
- -t 7.548032000 -s 3 -d -1 -p BCN -e 12 -c 2 -a 0 -i 0 -k MAC
h -t 7.548032000 -s 3 -d -1 -p BCN -e 12 -c 2 -a 0 -i 0 -k MAC -R 20.00 -D 0.00
+ -t 7.670912000 -s 3 -d -1 -p BCN -e 12 -c 2 -a 0 -i 0 -k MAC 
- -t 7.670912000 -s 3 -d -1 -p BCN -e 12 -c 2 -a 0 -i 0 -k MAC
h -t 7.670912000 -s 3 -d -1 -p BCN -e 12 -c 2 -a 0 -i 0 -k MAC -R 20.00 -D 0.00
+ -t 7.793792000 -s 3 -d -1 -p BCN -e 12 -c 2 -a 0 -i 0 -k MAC 
- -t 7.793792000 -s 3 -d -1 -p BCN -e 12 -c 2 -a 0 -i 0 -k MAC
h -t 7.793792000 -s 3 -d -1 -p BCN -e 12 -c 2 -a 0 -i 0 -k MAC -R 20.00 -D 0.00
+ -t 7.916672000 -s 3 -d -1 -p BCN -e 12 -c 2 -a 0 -i 0 -k MAC 
- -t 7.916672000 -s 3 -d -1 -p BCN -e 12 -c 2 -a 0 -i 0 -k MAC
h -t 7.916672000 -s 3 -d -1 -p BCN -e 12 -c 2 -a 0 -i 0 -k MAC -R 20.00 -D 0.00
+ -t 8.039552000 -s 3 -d -1 -p BCN -e 12 -c 2 -a 0 -i 0 -k MAC 
- -t 8.039552000 -s 3 -d -1 -p BCN -e 12 -c 2 -a 0 -i 0 -k MAC
h -t 8.039552000 -s 3 -d -1 -p BCN -e 12 -c 2 -a 0 -i 0 -k MAC -R 20.00 -D 0.00
d -t 8.040128050 -s 4 -d -1 -p BCN -e 12 -c 2 -a 0 -i 0 -k MAC
+ -t 8.162432000 -s 3 -d -1 -p BCN -e 12 -c 2 -a 0 -i 0 -k MAC 
- -t 8.162432000 -s 3 -d -1 -p BCN -e 12 -c 2 -a 0 -i 0 -k MAC
h -t 8.162432000 -s 3 -d -1 -p BCN -e 12 -c 2 -a 0 -i 0 -k MAC -R 20.00 -D 0.00
+ -t 8.285312000 -s 3 -d -1 -p BCN -e 12 -c 2 -a 0 -i 0 -k MAC 
- -t 8.285312000 -s 3 -d -1 -p BCN -e 12 -c 2 -a 0 -i 0 -k MAC
h -t 8.285312000 -s 3 -d -1 -p BCN -e 12 -c 2 -a 0 -i 0 -k MAC -R 20.00 -D 0.00
+ -t 8.408192000 -s 3 -d -1 -p BCN -e 12 -c 2 -a 0 -i 0 -k MAC 
- -t 8.408192000 -s 3 -d -1 -p BCN -e 12 -c 2 -a 0 -i 0 -k MAC
h -t 8.408192000 -s 3 -d -1 -p BCN -e 12 -c 2 -a 0 -i 0 -k MAC -R 20.00 -D 0.00
d -t 8.408768050 -s 4 -d -1 -p BCN -e 12 -c 2 -a 0 -i 0 -k MAC
+ -t 8.531072000 -s 3 -d -1 -p BCN -e 12 -c 2 -a 0 -i 0 -k MAC 
- -t 8.531072000 -s 3 -d -1 -p BCN -e 12 -c 2 -a 0 -i 0 -k MAC
h -t 8.531072000 -s 3 -d -1 -p BCN -e 12 -c 2 -a 0 -i 0 -k MAC -R 20.00 -D 0.00
+ -t 8.582400000 -s 1 -d -1 -p CM7 -e 8 -c 2 -a 0 -i 0 -k MAC 
- -t 8.582400000 -s 1 -d -1 -p CM7 -e 8 -c 2 -a 0 -i 0 -k MAC
h -t 8.582400000 -s 1 -d -1 -p CM7 -e 8 -c 2 -a 0 -i 0 -k MAC -R 20.00 -D 0.00
r -t 8.582848050 -s 2 -d -1 -p CM7 -e 8 -c 2 -a 0 -i 0 -k MAC
r -t 8.582848050 -s 0 -d -1 -p CM7 -e 8 -c 2 -a 0 -i 0 -k MAC
+ -t 8.653952000 -s 3 -d -1 -p BCN -e 12 -c 2 -a 0 -i 0 -k MAC 
- -t 8.653952000 -s 3 -d -1 -p BCN -e 12 -c 2 -a 0 -i 0 -k MAC
h -t 8.653952000 -s 3 -d -1 -p BCN -e 12 -c 2 -a 0 -i 0 -k MAC -R 20.00 -D 0.00
+ -t 8.776832000 -s 3 -d -1 -p BCN -e 12 -c 2 -a 0 -i 0 -k MAC 
- -t 8.776832000 -s 3 -d -1 -p BCN -e 12 -c 2 -a 0 -i 0 -k MAC
h -t 8.776832000 -s 3 -d -1 -p BCN -e 12 -c 2 -a 0 -i 0 -k MAC -R 20.00 -D 0.00
+ -t 8.844800000 -s 1 -d -1 -p CM7 -e 8 -c 2 -a 0 -i 0 -k MAC 
- -t 8.844800000 -s 1 -d -1 -p CM7 -e 8 -c 2 -a 0 -i 0 -k MAC
h -t 8.844800000 -s 1 -d -1 -p CM7 -e 8 -c 2 -a 0 -i 0 -k MAC -R 20.00 -D 0.00
+ -t 8.899712000 -s 3 -d -1 -p BCN -e 12 -c 2 -a 0 -i 0 -k MAC 
- -t 8.899712000 -s 3 -d -1 -p BCN -e 12 -c 2 -a 0 -i 0 -k MAC
h -t 8.899712000 -s 3 -d -1 -p BCN -e 12 -c 2 -a 0 -i 0 -k MAC -R 20.00 -D 0.00
+ -t 9.022592000 -s 3 -d -1 -p BCN -e 12 -c 2 -a 0 -i 0 -k MAC 
- -t 9.022592000 -s 3 -d -1 -p BCN -e 12 -c 2 -a 0 -i 0 -k MAC
h -t 9.022592000 -s 3 -d -1 -p BCN -e 12 -c 2 -a 0 -i 0 -k MAC -R 20.00 -D 0.00
+ -t 9.107840000 -s 1 -d -1 -p CM7 -e 8 -c 2 -a 0 -i 0 -k MAC 
- -t 9.107840000 -s 1 -d -1 -p CM7 -e 8 -c 2 -a 0 -i 0 -k MAC
h -t 9.107840000 -s 1 -d -1 -p CM7 -e 8 -c 2 -a 0 -i 0 -k MAC -R 20.00 -D 0.00
+ -t 9.145472000 -s 3 -d -1 -p BCN -e 12 -c 2 -a 0 -i 0 -k MAC 
- -t 9.145472000 -s 3 -d -1 -p BCN -e 12 -c 2 -a 0 -i 0 -k MAC
h -t 9.145472000 -s 3 -d -1 -p BCN -e 12 -c 2 -a 0 -i 0 -k MAC -R 20.00 -D 0.00
+ -t 9.268352000 -s 3 -d -1 -p BCN -e 12 -c 2 -a 0 -i 0 -k MAC 