s 5.000000000 _10_ AGT  --- 0 cbr 50 [0 0 0 0] [energy 100.000000 ei 0.000 es 0.000 et 0.000 er 0.000] ------- [10:0 0:0 32 0] [0] 0 0
r 5.000000000 _10_ RTR  --- 0 cbr 50 [0 0 0 0] [energy 100.000000 ei 0.000 es 0.000 et 0.000 er 0.000] ------- [10:0 0:0 32 0] [0] 0 0
s 5.000000000 _10_ RTR  --- 0 AODV 48 [0 0 0 0] [energy 100.000000 ei 0.000 es 0.000 et 0.000 er 0.000] ------- [10:255 -1:255 30 0] [0x2 1 1 [0 0] [10 4]] (REQUEST)
N -t 5.000665 -n 2 -e 99.996371
N -t 5.000665 -n 351 -e 99.996371
r 5.003282099 _2_ RTR  --- 0 AODV 48 [0 ffffffff a 800] [energy 99.996371 ei 0.004 es 0.000 et 0.000 er 0.000] ------- [10:255 -1:255 30 0] [0x2 1 1 [0 0] [10 4]] (REQUEST)
r 5.003282111 _351_ RTR  --- 0 AODV 48 [0 ffffffff a 800] [energy 99.996371 ei 0.004 es 0.000 et 0.000 er 0.000] ------- [10:255 -1:255 30 0] [0x2 1 1 [0 0] [10 4]] (REQUEST)
s 5.004245534 _2_ RTR  --- 0 AODV 48 [0 ffffffff a 800] [energy 99.996371 ei 0.004 es 0.000 et 0.000 er 0.000] ------- [2:255 -1:255 29 0] [0x2 2 1 [0 0] [10 4]] (REQUEST)
N -t 5.005231 -n 381 -e 99.996367
N -t 5.005231 -n 351 -e 99.996300
N -t 5.005231 -n 138 -e 99.996367
N -t 5.005231 -n 10 -e 99.996297
r 5.007847596 _381_ RTR  --- 0 AODV 48 [0 ffffffff 2 800] [energy 99.996367 ei 0.004 es 0.000 et 0.000 er 0.000] ------- [2:255 -1:255 29 0] [0x2 2 1 [0 0] [10 4]] (REQUEST)
r 5.007847619 _351_ RTR  --- 0 AODV 48 [0 ffffffff 2 800] [energy 99.996300 ei 0.004 es 0.000 et 0.000 er 0.000] ------- [2:255 -1:255 29 0] [0x2 2 1 [0 0] [10 4]] (REQUEST)
r 5.007847629 _138_ RTR  --- 0 AODV 48 [0 ffffffff 2 800] [energy 99.996367 ei 0.004 es 0.000 et 0.000 er 0.000] ------- [2:255 -1:255 29 0] [0x2 2 1 [0 0] [10 4]] (REQUEST)
r 5.007847632 _10_ RTR  --- 0 AODV 48 [0 ffffffff 2 800] [energy 99.996297 ei 0.004 es 0.000 et 0.000 er 0.000] ------- [2:255 -1:255 29 0] [0x2 2 1 [0 0] [10 4]] (REQUEST)
s 5.007930624 _381_ RTR  --- 0 AODV 48 [0 ffffffff 2 800] [energy 99.996367 ei 0.004 es 0.000 et 0.000 er 0.000] ------- [381:255 -1:255 28 0] [0x2 3 1 [0 0] [10 4]] (REQUEST)
N -t 5.010516 -n 2 -e 99.996225
N -t 5.010516 -n 138 -e 99.996296
N -t 5.010516 -n 351 -e 99.996229
N -t 5.010516 -n 384 -e 99.996364
s 5.010939572 _351_ RTR  --- 0 AODV 48 [0 ffffffff a 800] [energy 99.996229 ei 0.004 es 0.000 et 0.000 er 0.000] ------- [351:255 -1:255 29 0] [0x2 2 1 [0 0] [10 4]] (REQUEST)
s 5.012933528 _138_ RTR  --- 0 AODV 48 [0 ffffffff 2 800] [energy 99.996296 ei 0.004 es 0.000 et 0.000 er 0.000] ------- [138:255 -1:255 28 0] [0x2 3 1 [0 0] [10 4]] (REQUEST)
r 5.013132686 _2_ RTR  --- 0 AODV 48 [0 ffffffff 17d 800] [energy 99.996225 ei 0.004 es 0.000 et 0.000 er 0.000] ------- [381:255 -1:255 28 0] [0x2 3 1 [0 0] [10 4]] (REQUEST)
r 5.013132700 _138_ RTR  --- 0 AODV 48 [0 ffffffff 17d 800] [energy 99.996285 ei 0.004 es 0.000 et 0.000 er 0.000] ------- [381:255 -1:255 28 0] [0x2 3 1 [0 0] [10 4]] (REQUEST)
r 5.013132709 _351_ RTR  --- 0 AODV 48 [0 ffffffff 17d 800] [energy 99.996206 ei 0.004 es 0.000 et 0.000 er 0.000] ------- [381:255 -1:255 28 0] [0x2 3 1 [0 0] [10 4]] (REQUEST)
r 5.013132727 _384_ RTR  --- 0 AODV 48 [0 ffffffff 17d 800] [energy 99.996364 ei 0.004 es 0.000 et 0.000 er 0.000] ------- [381:255 -1:255 28 0] [0x2 3 1 [0 0] [10 4]] (REQUEST)
N -t 5.013279 -n 381 -e 99.996223
N -t 5.013279 -n 2 -e 99.996156
N -t 5.013279 -n 399 -e 99.996362
N -t 5.015573 -n 384 -e 99.996293
N -t 5.015573 -n 381 -e 99.996154
N -t 5.015573 -n 2 -e 99.996087
N -t 5.015573 -n 10 -e 99.996222
N -t 5.015573 -n 456 -e 99.996360
r 5.015895605 _381_ RTR  --- 0 AODV 48 [0 ffffffff 8a 800] [energy 99.996154 ei 0.004 es 0.000 et 0.000 er 0.000] ------- [138:255 -1:255 28 0] [0x2 3 1 [0 0] [10 4]] (REQUEST)
r 5.015895623 _2_ RTR  --- 0 AODV 48 [0 ffffffff 8a 800] [energy 99.996087 ei 0.004 es 0.000 et 0.000 er 0.000] ------- [138:255 -1:255 28 0] [0x2 3 1 [0 0] [10 4]] (REQUEST)
r 5.015895661 _399_ RTR  --- 0 AODV 48 [0 ffffffff 8a 800] [energy 99.996362 ei 0.004 es 0.000 et 0.000 er 0.000] ------- [138:255 -1:255 28 0] [0x2 3 1 [0 0] [10 4]] (REQUEST)
r 5.018189643 _384_ RTR  --- 0 AODV 48 [0 ffffffff 15f 800] [energy 99.996293 ei 0.004 es 0.000 et 0.000 er 0.000] ------- [351:255 -1:255 29 0] [0x2 2 1 [0 0] [10 4]] (REQUEST)
r 5.018189657 _381_ RTR  --- 0 AODV 48 [0 ffffffff 15f 800] [energy 99.996154 ei 0.004 es 0.000 et 0.000 er 0.000] ------- [351:255 -1:255 29 0] [0x2 2 1 [0 0] [10 4]] (REQUEST)
r 5.018189657 _2_ RTR  --- 0 AODV 48 [0 ffffffff 15f 800] [energy 99.996087 ei 0.004 es 0.000 et 0.000 er 0.000] ------- [351:255 -1:255 29 0] [0x2 2 1 [0 0] [10 4]] (REQUEST)
r 5.018189683 _10_ RTR  --- 0 AODV 48 [0 ffffffff 15f 800] [energy 99.996222 ei 0.004 es 0.000 et 0.000 er 0.000] ------- [351:255 -1:255 29 0] [0x2 2 1 [0 0] [10 4]] (REQUEST)
r 5.018189700 _456_ RTR  --- 0 AODV 48 [0 ffffffff 15f 800] [energy 99.996360 ei 0.004 es 0.000 et 0.000 er 0.000] ------- [351:255 -1:255 29 0] [0x2 2 1 [0 0] [10 4]] (REQUEST)
s 5.018295623 _399_ RTR  --- 0 AODV 48 [0 ffffffff 8a 800] [energy 99.996362 ei 0.004 es 0.000 et 0.000 er 0.000] ------- [399:255 -1:255 27 0] [0x2 4 1 [0 0] [10 4]] (REQUEST)
N -t 5.020561 -n 182 -e 99.996356
N -t 5.020561 -n 262 -e 99.996356
N -t 5.020561 -n 355 -e 99.996356
N -t 5.020561 -n 120 -e 99.996356
N -t 5.020561 -n 135 -e 99.996356
N -t 5.020561 -n 138 -e 99.996151
s 5.022009736 _384_ RTR  --- 0 AODV 48 [0 ffffffff 17d 800] [energy 99.996293 ei 0.004 es 0.000 et 0.000 er 0.000] ------- [384:255 -1:255 27 0] [0x2 4 1 [0 0] [10 4]] (REQUEST)
s 5.023013274 _456_ RTR  --- 0 AODV 48 [0 ffffffff 15f 800] [energy 99.996360 ei 0.004 es 0.000 et 0.000 er 0.000] ------- [456:255 -1:255 28 0] [0x2 3 1 [0 0] [10 4]] (REQUEST)
r 5.023177714 _182_ RTR  --- 0 AODV 48 [0 ffffffff 18f 800] [energy 99.996356 ei 0.004 es 0.000 et 0.000 er 0.000] ------- [399:255 -1:255 27 0] [0x2 4 1 [0 0] [10 4]] (REQUEST)
r 5.023177746 _262_ RTR  --- 0 AODV 48 [0 ffffffff 18f 800] [energy 99.996356 ei 0.004 es 0.000 et 0.000 er 0.000] ------- [399:255 -1:255 27 0] [0x2 4 1 [0 0] [10 4]] (REQUEST)
r 5.023177752 _355_ RTR  --- 0 AODV 48 [0 ffffffff 18f 800] [energy 99.996356 ei 0.004 es 0.000 et 0.000 er 0.000] ------- [399:255 -1:255 27 0] [0x2 4 1 [0 0] [10 4]] (REQUEST)
r 5.023177754 _120_ RTR  --- 0 AODV 48 [0 ffffffff 18f 800] [energy 99.996356 ei 0.004 es 0.000 et 0.000 er 0.000] ------- [399:255 -1:255 27 0] [0x2 4 1 [0 0] [10 4]] (REQUEST)
r 5.023177755 _135_ RTR  --- 0 AODV 48 [0 ffffffff 18f 800] [energy 99.996356 ei 0.004 es 0.000 et 0.000 er 0.000] ------- [399:255 -1:255 27 0] [0x2 4 1 [0 0] [10 4]] (REQUEST)
r 5.023177757 _138_ RTR  --- 0 AODV 48 [0 ffffffff 18f 800] [energy 99.996151 ei 0.004 es 0.000 et 0.000 er 0.000] ------- [399:255 -1:255 27 0] [0x2 4 1 [0 0] [10 4]] (REQUEST)
N -t 5.023678 -n 374 -e 99.996354
N -t 5.023678 -n 42 -e 99.996354
N -t 5.023678 -n 74 -e 99.996354
N -t 5.023678 -n 351 -e 99.996059
N -t 5.024275 -n 351 -e 99.996038
N -t 5.024275 -n 381 -e 99.996081
s 5.025453426 _120_ RTR  --- 0 AODV 48 [0 ffffffff 18f 800] [energy 99.996356 ei 0.004 es 0.000 et 0.000 er 0.000] ------- [120:255 -1:255 26 0] [0x2 5 1 [0 0] [10 4]] (REQUEST)
r 5.026295317 _374_ RTR  --- 0 AODV 48 [0 ffffffff 1c8 800] [energy 99.996354 ei 0.004 es 0.000 et 0.000 er 0.000] ------- [456:255 -1:255 28 0] [0x2 3 1 [0 0] [10 4]] (REQUEST)
r 5.026295355 _42_ RTR  --- 0 AODV 48 [0 ffffffff 1c8 800] [energy 99.996354 ei 0.004 es 0.000 et 0.000 er 0.000] ------- [456:255 -1:255 28 0] [0x2 3 1 [0 0] [10 4]] (REQUEST)
r 5.026295392 _74_ RTR  --- 0 AODV 48 [0 ffffffff 1c8 800] [energy 99.996354 ei 0.004 es 0.000 et 0.000 er 0.000] ------- [456:255 -1:255 28 0] [0x2 3 1 [0 0] [10 4]] (REQUEST)
r 5.026891839 _381_ RTR  --- 0 AODV 48 [0 ffffffff 180 800] [energy 99.996081 ei 0.004 es 0.000 et 0.000 er 0.000] ------- [384:255 -1:255 27 0] [0x2 4 1 [0 0] [10 4]] (REQUEST)
s 5.027196013 _374_ RTR  --- 0 AODV 48 [0 ffffffff 1c8 800] [energy 99.996354 ei 0.004 es 0.000 et 0.000 er 0.000] ------- [374:255 -1:255 27 0] [0x2 4 1 [0 0] [10 4]] (REQUEST)
N -t 5.027398 -n 246 -e 99.996352
N -t 5.027398 -n 241 -e 99.996352
N -t 5.027399 -n 436 -e 99.996352
N -t 5.027399 -n 254 -e 99.996352
N -t 5.027399 -n 283 -e 99.996352
N -t 5.027399 -n 355 -e 99.996284
N -t 5.027399 -n 216 -e 99.996352
N -t 5.027399 -n 266 -e 99.996352
N -t 5.027399 -n 372 -e 99.996352
N -t 5.027399 -n 182 -e 99.996284
N -t 5.027399 -n 399 -e 99.996213
N -t 5.027399 -n 403 -e 99.996352
s 5.028382038 _262_ RTR  --- 0 AODV 48 [0 ffffffff 18f 800] [energy 99.996356 ei 0.004 es 0.000 et 0.000 er 0.000] ------- [262:255 -1:255 26 0] [0x2 5 1 [0 0] [10 4]] (REQUEST)
s 5.029007086 _74_ RTR  --- 0 AODV 48 [0 ffffffff 1c8 800] [energy 99.996354 ei 0.004 es 0.000 et 0.000 er 0.000] ------- [74:255 -1:255 27 0] [0x2 4 1 [0 0] [10 4]] (REQUEST)
s 5.029576905 _355_ RTR  --- 0 AODV 48 [0 ffffffff 18f 800] [energy 99.996284 ei 0.004 es 0.000 et 0.000 er 0.000] ------- [355:255 -1:255 26 0] [0x2 5 1 [0 0] [10 4]] (REQUEST)
N -t 5.029687 -n 135 -e 99.996283
N -t 5.029687 -n 182 -e 99.996215
N -t 5.029687 -n 49 -e 99.996350
N -t 5.029687 -n 355 -e 99.996215
N -t 5.029687 -n 484 -e 99.996350
N -t 5.029687 -n 129 -e 99.996350
N -t 5.029687 -n 435 -e 99.996350
N -t 5.029687 -n 399 -e 99.996144
N -t 5.029687 -n 322 -e 99.996350
N -t 5.029781 -n 456 -e 99.996212
N -t 5.029781 -n 42 -e 99.996282
N -t 5.029781 -n 74 -e 99.996282
r 5.030015491 _246_ RTR  --- 0 AODV 48 [0 ffffffff 78 800] [energy 99.996352 ei 0.004 es 0.000 et 0.000 er 0.000] ------- [120:255 -1:255 26 0] [0x2 5 1 [0 0] [10 4]] (REQUEST)
r 5.030015494 _241_ RTR  --- 0 AODV 48 [0 ffffffff 78 800] [energy 99.996352 ei 0.004 es 0.000 et 0.000 er 0.000] ------- [120:255 -1:255 26 0] [0x2 5 1 [0 0] [10 4]] (REQUEST)
r 5.030015527 _436_ RTR  --- 0 AODV 48 [0 ffffffff 78 800] [energy 99.996352 ei 0.004 es 0.000 et 0.000 er 0.000] ------- [120:255 -1:255 26 0] [0x2 5 1 [0 0] [10 4]] (REQUEST)
r 5.030015529 _254_ RTR  --- 0 AODV 48 [0 ffffffff 78 800] [energy 99.996352 ei 0.004 es 0.000 et 0.000 er 0.000] ------- [120:255 -1:255 26 0] [0x2 5 1 [0 0] [10 4]] (REQUEST)
r 5.030015537 _283_ RTR  --- 0 AODV 48 [0 ffffffff 78 800] [energy 99.996352 ei 0.004 es 0.000 et 0.000 er 0.000] ------- [120:255 -1:255 26 0] [0x2 5 1 [0 0] [10 4]] (REQUEST)
r 5.030015538 _355_ RTR  --- 0 AODV 48 [0 ffffffff 78 800] [energy 99.996215 ei 0.004 es 0.000 et 0.000 er 0.000] ------- [120:255 -1:255 26 0] [0x2 5 1 [0 0] [10 4]] (REQUEST)
r 5.030015545 _216_ RTR  --- 0 AODV 48 [0 ffffffff 78 800] [energy 99.996352 ei 0.004 es 0.000 et 0.000 er 0.000] ------- [120:255 -1:255 26 0] [0x2 5 1 [0 0] [10 4]] (REQUEST)
r 5.030015551 _266_ RTR  --- 0 AODV 48 [0 ffffffff 78 800] [energy 99.996352 ei 0.004 es 0.000 et 0.000 er 0.000] ------- [120:255 -1:255 26 0] [0x2 5 1 [0 0] [10 4]] (REQUEST)
r 5.030015553 _372_ RTR  --- 0 AODV 48 [0 ffffffff 78 800] [energy 99.996352 ei 0.004 es 0.000 et 0.000 er 0.000] ------- [120:255 -1:255 26 0] [0x2 5 1 [0 0] [10 4]] (REQUEST)
r 5.030015555 _182_ RTR  --- 0 AODV 48 [0 ffffffff 78 800] [energy 99.996215 ei 0.004 es 0.000 et 0.000 er 0.000] ------- [120:255 -1:255 26 0] [0x2 5 1 [0 0] [10 4]] (REQUEST)
r 5.030015557 _399_ RTR  --- 0 AODV 48 [0 ffffffff 78 800] [energy 99.996144 ei 0.004 es 0.000 et 0.000 er 0.000] ------- [120:255 -1:255 26 0] [0x2 5 1 [0 0] [10 4]] (REQUEST)
r 5.030015560 _403_ RTR  --- 0 AODV 48 [0 ffffffff 78 800] [energy 99.996352 ei 0.004 es 0.000 et 0.000 er 0.000] ------- [120:255 -1:255 26 0] [0x2 5 1 [0 0] [10 4]] (REQUEST)
s 5.032118434 _246_ RTR  --- 0 AODV 48 [0 ffffffff 78 800] [energy 99.996352 ei 0.004 es 0.000 et 0.000 er 0.000] ------- [246:255 -1:255 25 0] [0x2 6 1 [0 0] [10 4]] (REQUEST)
s 5.032177407 _254_ RTR  --- 0 AODV 48 [0 ffffffff 78 800] [energy 99.996352 ei 0.004 es 0.000 et 0.000 er 0.000] ------- [254:255 -1:255 25 0] [0x2 6 1 [0 0] [10 4]] (REQUEST)
N -t 5.032290 -n 262 -e 99.996210
N -t 5.032290 -n 182 -e 99.996146
N -t 5.032290 -n 49 -e 99.996281
N -t 5.032290 -n 135 -e 99.996213
N -t 5.032290 -n 435 -e 99.996281
N -t 5.032290 -n 241 -e 99.996281
N -t 5.032290 -n 120 -e 99.996210
N -t 5.032290 -n 484 -e 99.996281
N -t 5.032290 -n 129 -e 99.996281
N -t 5.032290 -n 399 -e 99.996075
r 5.032304049 _135_ RTR  --- 0 AODV 48 [0 ffffffff 106 800] [energy 99.996213 ei 0.004 es 0.000 et 0.000 er 0.000] ------- [262:255 -1:255 26 0] [0x2 5 1 [0 0] [10 4]] (REQUEST)
r 5.032304070 _182_ RTR  --- 0 AODV 48 [0 ffffffff 106 800] [energy 99.996146 ei 0.004 es 0.000 et 0.000 er 0.000] ------- [262:255 -1:255 26 0] [0x2 5 1 [0 0] [10 4]] (REQUEST)
r 5.032304073 _49_ RTR  --- 0 AODV 48 [0 ffffffff 106 800] [energy 99.996281 ei 0.004 es 0.000 et 0.000 er 0.000] ------- [262:255 -1:255 26 0] [0x2 5 1 [0 0] [10 4]] (REQUEST)
r 5.032304083 _355_ RTR  --- 0 AODV 48 [0 ffffffff 106 800] [energy 99.996120 ei 0.004 es 0.000 et 0.000 er 0.000] ------- [262:255 -1:255 26 0] [0x2 5 1 [0 0] [10 4]] (REQUEST)
r 5.032304117 _484_ RTR  --- 0 AODV 48 [0 ffffffff 106 800] [energy 99.996281 ei 0.004 es 0.000 et 0.000 er 0.000] ------- [262:255 -1:255 26 0] [0x2 5 1 [0 0] [10 4]] (REQUEST)
r 5.032304124 _129_ RTR  --- 0 AODV 48 [0 ffffffff 106 800] [energy 99.996281 ei 0.004 es 0.000 et 0.000 er 0.000] ------- [262:255 -1:255 26 0] [0x2 5 1 [0 0] [10 4]] (REQUEST)
r 5.032304129 _435_ RTR  --- 0 AODV 48 [0 ffffffff 106 800] [energy 99.996281 ei 0.004 es 0.000 et 0.000 er 0.000] ------- [262:255 -1:255 26 0] [0x2 5 1 [0 0] [10 4]] (REQUEST)
r 5.032304161 _399_ RTR  --- 0 AODV 48 [0 ffffffff 106 800] [energy 99.996075 ei 0.004 es 0.000 et 0.000 er 0.000] ------- [262:255 -1:255 26 0] [0x2 5 1 [0 0] [10 4]] (REQUEST)
r 5.032304163 _322_ RTR  --- 0 AODV 48 [0 ffffffff 106 800] [energy 99.996350 ei 0.004 es 0.000 et 0.000 er 0.000] ------- [262:255 -1:255 26 0] [0x2 5 1 [0 0] [10 4]] (REQUEST)
r 5.032398056 _456_ RTR  --- 0 AODV 48 [0 ffffffff 176 800] [energy 99.996212 ei 0.004 es 0.000 et 0.000 er 0.000] ------- [374:255 -1:255 27 0] [0x2 4 1 [0 0] [10 4]] (REQUEST)
r 5.032398119 _42_ RTR  --- 0 AODV 48 [0 ffffffff 176 800] [energy 99.996282 ei 0.004 es 0.000 et 0.000 er 0.000] ------- [374:255 -1:255 27 0] [0x2 4 1 [0 0] [10 4]] (REQUEST)
r 5.032398132 _74_ RTR  --- 0 AODV 48 [0 ffffffff 176 800] [energy 99.996238 ei 0.004 es 0.000 et 0.000 er 0.000] ------- [374:255 -1:255 27 0] [0x2 4 1 [0 0] [10 4]] (REQUEST)
s 5.032744977 _135_ RTR  --- 0 AODV 48 [0 ffffffff 18f 800] [energy 99.996213 ei 0.004 es 0.000 et 0.000 er 0.000] ------- [135:255 -1:255 26 0] [0x2 5 1 [0 0] [10 4]] (REQUEST)
s 5.032899130 _266_ RTR  --- 0 AODV 48 [0 ffffffff 78 800] [energy 99.996352 ei 0.004 es 0.000 et 0.000 er 0.000] ------- [266:255 -1:255 25 0] [0x2 6 1 [0 0] [10 4]] (REQUEST)
s 5.033065377 _322_ RTR  --- 0 AODV 48 [0 ffffffff 106 800] [energy 99.996350 ei 0.004 es 0.000 et 0.000 er 0.000] ------- [322:255 -1:255 25 0] [0x2 6 1 [0 0] [10 4]] (REQUEST)
s 5.033093438 _182_ RTR  --- 0 AODV 48 [0 ffffffff 18f 800] [energy 99.996146 ei 0.004 es 0.000 et 0.000 er 0.000] ------- [182:255 -1:255 26 0] [0x2 5 1 [0 0] [10 4]] (REQUEST)
N -t 5.033103 -n 254 -e 99.996280
N -t 5.033103 -n 120 -e 99.996181
N -t 5.033103 -n 372 -e 99.996280
N -t 5.033104 -n 436 -e 99.996280
N -t 5.033104 -n 266 -e 99.996280
N -t 5.033104 -n 216 -e 99.996280
N -t 5.033104 -n 283 -e 99.996280
N -t 5.033104 -n 51 -e 99.996348
N -t 5.033104 -n 241 -e 99.996252
N -t 5.033104 -n 403 -e 99.996280
s 5.034516873 _403_ RTR  --- 0 AODV 48 [0 ffffffff 78 800] [energy 99.996280 ei 0.004 es 0.000 et 0.000 er 0.000] ------- [403:255 -1:255 25 0] [0x2 6 1 [0 0] [10 4]] (REQUEST)
s 5.034886761 _435_ RTR  --- 0 AODV 48 [0 ffffffff 106 800] [energy 99.996281 ei 0.004 es 0.000 et 0.000 er 0.000] ------- [435:255 -1:255 25 0] [0x2 6 1 [0 0] [10 4]] (REQUEST)
r 5.034906950 _262_ RTR  --- 0 AODV 48 [0 ffffffff 163 800] [energy 99.996210 ei 0.004 es 0.000 et 0.000 er 0.000] ------- [355:255 -1:255 26 0] [0x2 5 1 [0 0] [10 4]] (REQUEST)
r 5.034906954 _182_ RTR  --- 0 AODV 48 [0 ffffffff 163 800] [energy 99.996146 ei 0.004 es 0.000 et 0.000 er 0.000] ------- [355:255 -1:255 26 0] [0x2 5 1 [0 0] [10 4]] (REQUEST)
r 5.034906956 _49_ RTR  --- 0 AODV 48 [0 ffffffff 163 800] [energy 99.996281 ei 0.004 es 0.000 et 0.000 er 0.000] ------- [355:255 -1:255 26 0] [0x2 5 1 [0 0] [10 4]] (REQUEST)
r 5.034906957 _135_ RTR  --- 0 AODV 48 [0 ffffffff 163 800] [energy 99.996213 ei 0.004 es 0.000 et 0.000 er 0.000] ------- [355:255 -1:255 26 0] [0x2 5 1 [0 0] [10 4]] (REQUEST)
r 5.034906972 _435_ RTR  --- 0 AODV 48 [0 ffffffff 163 800] [energy 99.996281 ei 0.004 es 0.000 et 0.000 er 0.000] ------- [355:255 -1:255 26 0] [0x2 5 1 [0 0] [10 4]] (REQUEST)
r 5.034907028 _484_ RTR  --- 0 AODV 48 [0 ffffffff 163 800] [energy 99.996281 ei 0.004 es 0.000 et 0.000 er 0.000] ------- [355:255 -1:255 26 0] [0x2 5 1 [0 0] [10 4]] (REQUEST)
r 5.034907033 _129_ RTR  --- 0 AODV 48 [0 ffffffff 163 800] [energy 99.996281 ei 0.004 es 0.000 et 0.000 er 0.000] ------- [355:255 -1:255 26 0] [0x2 5 1 [0 0] [10 4]] (REQUEST)
r 5.034907034 _399_ RTR  --- 0 AODV 48 [0 ffffffff 163 800] [energy 99.996075 ei 0.004 es 0.000 et 0.000 er 0.000] ------- [355:255 -1:255 26 0] [0x2 5 1 [0 0] [10 4]] (REQUEST)
N -t 5.035232 -n 49 -e 99.996211
N -t 5.035232 -n 355 -e 99.996050
N -t 5.035232 -n 135 -e 99.996133
N -t 5.035232 -n 262 -e 99.996140
N -t 5.035232 -n 241 -e 99.996183
N -t 5.035232 -n 182 -e 99.996076
N -t 5.035232 -n 429 -e 99.996346
s 5.035314964 _42_ RTR  --- 0 AODV 48 [0 ffffffff 1c8 800] [energy 99.996282 ei 0.004 es 0.000 et 0.000 er 0.000] ------- [42:255 -1:255 27 0] [0x2 4 1 [0 0] [10 4]] (REQUEST)
N -t 5.035330 -n 262 -e 99.996137
N -t 5.035330 -n 49 -e 99.996208
N -t 5.035330 -n 182 -e 99.996073
N -t 5.035330 -n 355 -e 99.996047
N -t 5.035330 -n 484 -e 99.996211
N -t 5.035330 -n 129 -e 99.996211
N -t 5.035330 -n 435 -e 99.996204
N -t 5.035330 -n 322 -e 99.996267
N -t 5.035330 -n 399 -e 99.996005
N -t 5.035330 -n 484 -e 99.996211
N -t 5.035330 -n 129 -e 99.996211
N -t 5.035330 -n 47 -e 99.996346
N -t 5.035330 -n 135 -e 99.996129
N -t 5.035331 -n 262 -e 99.996137
N -t 5.035331 -n 182 -e 99.996073
N -t 5.035368 -n 85 -e 99.996346
N -t 5.035368 -n 42 -e 99.996211
N -t 5.035368 -n 456 -e 99.996140
N -t 5.035368 -n 374 -e 99.996208
s 5.035707982 _372_ RTR  --- 0 AODV 48 [0 ffffffff 78 800] [energy 99.996280 ei 0.004 es 0.000 et 0.000 er 0.000] ------- [372:255 -1:255 25 0] [0x2 6 1 [0 0] [10 4]] (REQUEST)
r 5.035720491 _254_ RTR  --- 0 AODV 48 [0 ffffffff f6 800] [energy 99.996258 ei 0.004 es 0.000 et 0.000 er 0.000] ------- [246:255 -1:255 25 0] [0x2 6 1 [0 0] [10 4]] (REQUEST)
r 5.035720500 _372_ RTR  --- 0 AODV 48 [0 ffffffff f6 800] [energy 99.996280 ei 0.004 es 0.000 et 0.000 er 0.000] ------- [246:255 -1:255 25 0] [0x2 6 1 [0 0] [10 4]] (REQUEST)
r 5.035720500 _436_ RTR  --- 0 AODV 48 [0 ffffffff f6 800] [energy 99.996280 ei 0.004 es 0.000 et 0.000 er 0.000] ------- [246:255 -1:255 25 0] [0x2 6 1 [0 0] [10 4]] (REQUEST)
r 5.035720505 _266_ RTR  --- 0 AODV 48 [0 ffffffff f6 800] [energy 99.996235 ei 0.004 es 0.000 et 0.000 er 0.000] ------- [246:255 -1:255 25 0] [0x2 6 1 [0 0] [10 4]] (REQUEST)
r 5.035720515 _216_ RTR  --- 0 AODV 48 [0 ffffffff f6 800] [energy 99.996280 ei 0.004 es 0.000 et 0.000 er 0.000] ------- [246:255 -1:255 25 0] [0x2 6 1 [0 0] [10 4]] (REQUEST)
r 5.035720528 _283_ RTR  --- 0 AODV 48 [0 ffffffff f6 800] [energy 99.996280 ei 0.004 es 0.000 et 0.000 er 0.000] ------- [246:255 -1:255 25 0] [0x2 6 1 [0 0] [10 4]] (REQUEST)
r 5.035720543 _51_ RTR  --- 0 AODV 48 [0 ffffffff f6 800] [energy 99.996348 ei 0.004 es 0.000 et 0.000 er 0.000] ------- [246:255 -1:255 25 0] [0x2 6 1 [0 0] [10 4]] (REQUEST)
r 5.035720559 _403_ RTR  --- 0 AODV 48 [0 ffffffff f6 800] [energy 99.996280 ei 0.004 es 0.000 et 0.000 er 0.000] ------- [246:255 -1:255 25 0] [0x2 6 1 [0 0] [10 4]] (REQUEST)
N -t 5.036053 -n 266 -e 99.996166
N -t 5.036053 -n 254 -e 99.996188
N -t 5.036053 -n 51 -e 99.996278
N -t 5.036053 -n 216 -e 99.996211
N -t 5.036053 -n 246 -e 99.996207
N -t 5.036053 -n 436 -e 99.996211
N -t 5.036053 -n 98 -e 99.996345
N -t 5.036053 -n 394 -e 99.996345
N -t 5.036053 -n 120 -e 99.996112
s 5.037056198 _436_ RTR  --- 0 AODV 48 [0 ffffffff 78 800] [energy 99.996211 ei 0.004 es 0.000 et 0.000 er 0.000] ------- [436:255 -1:255 25 0] [0x2 6 1 [0 0] [10 4]] (REQUEST)
N -t 5.037102 -n 283 -e 99.996210
N -t 5.037102 -n 436 -e 99.996174
N -t 5.037102 -n 39 -e 99.996345
N -t 5.037102 -n 241 -e 99.996117
N -t 5.037102 -n 362 -e 99.996345
N -t 5.037102 -n 174 -e 99.996345
N -t 5.037102 -n 246 -e 99.996170
N -t 5.037102 -n 120 -e 99.996075
s 5.037495878 _241_ RTR  --- 0 AODV 48 [0 ffffffff 78 800] [energy 99.996117 ei 0.004 es 0.000 et 0.000 er 0.000] ------- [241:255 -1:255 25 0] [0x2 6 1 [0 0] [10 4]] (REQUEST)
r 5.037848889 _429_ RTR  --- 0 AODV 48 [0 ffffffff 1b3 800] [energy 99.996346 ei 0.004 es 0.000 et 0.000 er 0.000] ------- [435:255 -1:255 25 0] [0x2 6 1 [0 0] [10 4]] (REQUEST)
s 5.037852296 _51_ RTR  --- 0 AODV 48 [0 ffffffff f6 800] [energy 99.996278 ei 0.004 es 0.000 et 0.000 er 0.000] ------- [51:255 -1:255 24 0] [0x2 7 1 [0 0] [10 4]] (REQUEST)
r 5.037946988 _262_ RTR  --- 0 AODV 48 [0 ffffffff 87 800] [energy 99.996137 ei 0.004 es 0.000 et 0.000 er 0.000] ------- [135:255 -1:255 26 0] [0x2 5 1 [0 0] [10 4]] (REQUEST)
r 5.037947109 _399_ RTR  --- 0 AODV 48 [0 ffffffff 87 800] [energy 99.996005 ei 0.004 es 0.000 et 0.000 er 0.000] ------- [135:255 -1:255 26 0] [0x2 5 1 [0 0] [10 4]] (REQUEST)
r 5.037947486 _47_ RTR  --- 0 AODV 48 [0 ffffffff 142 800] [energy 99.996346 ei 0.004 es 0.000 et 0.000 er 0.000] ------- [322:255 -1:255 25 0] [0x2 6 1 [0 0] [10 4]] (REQUEST)
s 5.037977872 _484_ RTR  --- 0 AODV 48 [0 ffffffff 106 800] [energy 99.996211 ei 0.004 es 0.000 et 0.000 er 0.000] ------- [484:255 -1:255 25 0] [0x2 6 1 [0 0] [10 4]] (REQUEST)
r 5.037985134 _85_ RTR  --- 0 AODV 48 [0 ffffffff 4a 800] [energy 99.996346 ei 0.004 es 0.000 et 0.000 er 0.000] ------- [74:255 -1:255 27 0] [0x2 4 1 [0 0] [10 4]] (REQUEST)
r 5.037985152 _42_ RTR  --- 0 AODV 48 [0 ffffffff 4a 800] [energy 99.996189 ei 0.004 es 0.000 et 0.000 er 0.000] ------- [74:255 -1:255 27 0] [0x2 4 1 [0 0] [10 4]] (REQUEST)
r 5.037985204 _456_ RTR  --- 0 AODV 48 [0 ffffffff 4a 800] [energy 99.996140 ei 0.004 es 0.000 et 0.000 er 0.000] ------- [74:255 -1:255 27 0] [0x2 4 1 [0 0] [10 4]] (REQUEST)
r 5.037985205 _374_ RTR  --- 0 AODV 48 [0 ffffffff 4a 800] [energy 99.996208 ei 0.004 es 0.000 et 0.000 er 0.000] ------- [74:255 -1:255 27 0] [0x2 4 1 [0 0] [10 4]] (REQUEST)
s 5.038215829 _429_ RTR  --- 0 AODV 48 [0 ffffffff 1b3 800] [energy 99.996346 ei 0.004 es 0.000 et 0.000 er 0.000] ------- [429:255 -1:255 24 0] [0x2 7 1 [0 0] [10 4]] (REQUEST)
r 5.038670008 _266_ RTR  --- 0 AODV 48 [0 ffffffff 174 800] [energy 99.996166 ei 0.004 es 0.000 et 0.000 er 0.000] ------- [372:255 -1:255 25 0] [0x2 6 1 [0 0] [10 4]] (REQUEST)
r 5.038670023 _254_ RTR  --- 0 AODV 48 [0 ffffffff 174 800] [energy 99.996166 ei 0.004 es 0.000 et 0.000 er 0.000] ------- [372:255 -1:255 25 0] [0x2 6 1 [0 0] [10 4]] (REQUEST)
r 5.038670025 _51_ RTR  --- 0 AODV 48 [0 ffffffff 174 800] [energy 99.996278 ei 0.004 es 0.000 et 0.000 er 0.000] ------- [372:255 -1:255 25 0] [0x2 6 1 [0 0] [10 4]] (REQUEST)
r 5.038670039 _216_ RTR  --- 0 AODV 48 [0 ffffffff 174 800] [energy 99.996211 ei 0.004 es 0.000 et 0.000 er 0.000] ------- [372:255 -1:255 25 0] [0x2 6 1 [0 0] [10 4]] (REQUEST)
r 5.038670102 _98_ RTR  --- 0 AODV 48 [0 ffffffff 174 800] [energy 99.996345 ei 0.004 es 0.000 et 0.000 er 0.000] ------- [372:255 -1:255 25 0] [0x2 6 1 [0 0] [10 4]] (REQUEST)
r 5.038670105 _394_ RTR  --- 0 AODV 48 [0 ffffffff 174 800] [energy 99.996345 ei 0.004 es 0.000 et 0.000 er 0.000] ------- [372:255 -1:255 25 0] [0x2 6 1 [0 0] [10 4]] (REQUEST)
N -t 5.038881 -n 347 -e 99.996343
N -t 5.038881 -n 156 -e 99.996343
N -t 5.038881 -n 186 -e 99.996343
N -t 5.038881 -n 272 -e 99.996343
N -t 5.038881 -n 435 -e 99.996134
s 5.039128822 _283_ RTR  --- 0 AODV 48 [0 ffffffff 78 800] [energy 99.996210 ei 0.004 es 0.000 et 0.000 er 0.000] ------- [283:255 -1:255 25 0] [0x2 6 1 [0 0] [10 4]] (REQUEST)
N -t 5.039326 -n 262 -e 99.996066
N -t 5.039326 -n 135 -e 99.996059
N -t 5.039326 -n 355 -e 99.995977
N -t 5.039327 -n 49 -e 99.996137
N -t 5.039327 -n 399 -e 99.995935
N -t 5.039327 -n 484 -e 99.996141
N -t 5.039327 -n 129 -e 99.996141
N -t 5.039327 -n 435 -e 99.996119
N -t 5.039327 -n 322 -e 99.996197
N -t 5.039327 -n 120 -e 99.996006
N -t 5.039474 -n 403 -e 99.996137
N -t 5.039474 -n 436 -e 99.996082
N -t 5.039474 -n 241 -e 99.996048
N -t 5.039474 -n 246 -e 99.996101
N -t 5.039474 -n 120 -e 99.996000
N -t 5.039474 -n 39 -e 99.996276
N -t 5.039477 -n 372 -e 99.996137
N -t 5.039477 -n 266 -e 99.996096
N -t 5.039477 -n 254 -e 99.996096
N -t 5.039477 -n 216 -e 99.996141
N -t 5.039477 -n 246 -e 99.996101
N -t 5.039477 -n 394 -e 99.996276
N -t 5.039477 -n 98 -e 99.996276
N -t 5.039477 -n 8 -e 99.996343
s 5.039487940 _49_ RTR  --- 0 AODV 48 [0 ffffffff 106 800] [energy 99.996137 ei 0.004 es 0.000 et 0.000 er 0.000] ------- [49:255 -1:255 25 0] [0x2 6 1 [0 0] [10 4]] (REQUEST)
s 5.039499221 _98_ RTR  --- 0 AODV 48 [0 ffffffff 174 800] [energy 99.996276 ei 0.004 es 0.000 et 0.000 er 0.000] ------- [98:255 -1:255 24 0] [0x2 7 1 [0 0] [10 4]] (REQUEST)
s 5.039605149 _216_ RTR  --- 0 AODV 48 [0 ffffffff 78 800] [energy 99.996141 ei 0.004 es 0.000 et 0.000 er 0.000] ------- [216:255 -1:255 25 0] [0x2 6 1 [0 0] [10 4]] (REQUEST)
r 5.039718904 _283_ RTR  --- 0 AODV 48 [0 ffffffff 193 800] [energy 99.996137 ei 0.004 es 0.000 et 0.000 er 0.000] ------- [403:255 -1:255 25 0] [0x2 6 1 [0 0] [10 4]] (REQUEST)
r 5.039718962 _39_ RTR  --- 0 AODV 48 [0 ffffffff 193 800] [energy 99.996276 ei 0.004 es 0.000 et 0.000 er 0.000] ------- [403:255 -1:255 25 0] [0x2 6 1 [0 0] [10 4]] (REQUEST)
r 5.039718983 _362_ RTR  --- 0 AODV 48 [0 ffffffff 193 800] [energy 99.996345 ei 0.004 es 0.000 et 0.000 er 0.000] ------- [403:255 -1:255 25 0] [0x2 6 1 [0 0] [10 4]] (REQUEST)
r 5.039718996 _174_ RTR  --- 0 AODV 48 [0 ffffffff 193 800] [energy 99.996345 ei 0.004 es 0.000 et 0.000 er 0.000] ------- [403:255 -1:255 25 0] [0x2 6 1 [0 0] [10 4]] (REQUEST)
s 5.039901152 _394_ RTR  --- 0 AODV 48 [0 ffffffff 174 800] [energy 99.996276 ei 0.004 es 0.000 et 0.000 er 0.000] ------- [394:255 -1:255 24 0] [0x2 7 1 [0 0] [10 4]] (REQUEST)
s 5.040086235 _129_ RTR  --- 0 AODV 48 [0 ffffffff 106 800] [energy 99.996141 ei 0.004 es 0.000 et 0.000 er 0.000] ------- [129:255 -1:255 25 0] [0x2 6 1 [0 0] [10 4]] (REQUEST)
N -t 5.040268 -n 74 -e 99.996092
N -t 5.040268 -n 456 -e 99.996069
N -t 5.040268 -n 374 -e 99.996137
N -t 5.040268 -n 85 -e 99.996275
r 5.041497928 _347_ RTR  --- 0 AODV 48 [0 ffffffff 1ad 800] [energy 99.996343 ei 0.004 es 0.000 et 0.000 er 0.000] ------- [429:255 -1:255 24 0] [0x2 7 1 [0 0] [10 4]] (REQUEST)
r 5.041497945 _156_ RTR  --- 0 AODV 48 [0 ffffffff 1ad 800] [energy 99.996343 ei 0.004 es 0.000 et 0.000 er 0.000] ------- [429:255 -1:255 24 0] [0x2 7 1 [0 0] [10 4]] (REQUEST)
r 5.041497952 _186_ RTR  --- 0 AODV 48 [0 ffffffff 1ad 800] [energy 99.996343 ei 0.004 es 0.000 et 0.000 er 0.000] ------- [429:255 -1:255 24 0] [0x2 7 1 [0 0] [10 4]] (REQUEST)
r 5.041497952 _272_ RTR  --- 0 AODV 48 [0 ffffffff 1ad 800] [energy 99.996343 ei 0.004 es 0.000 et 0.000 er 0.000] ------- [429:255 -1:255 24 0] [0x2 7 1 [0 0] [10 4]] (REQUEST)
N -t 5.041753 -n 135 -e 99.995990
N -t 5.041753 -n 262 -e 99.995997
N -t 5.041753 -n 355 -e 99.995907
N -t 5.041753 -n 435 -e 99.996049
N -t 5.041753 -n 182 -e 99.995907
N -t 5.041753 -n 484 -e 99.996049
N -t 5.041753 -n 129 -e 99.996071
r 5.041943471 _262_ RTR  --- 0 AODV 48 [0 ffffffff b6 800] [energy 99.995997 ei 0.004 es 0.000 et 0.000 er 0.000] ------- [182:255 -1:255 26 0] [0x2 5 1 [0 0] [10 4]] (REQUEST)
r 5.041943481 _135_ RTR  --- 0 AODV 48 [0 ffffffff b6 800] [energy 99.995990 ei 0.004 es 0.000 et 0.000 er 0.000] ------- [182:255 -1:255 26 0] [0x2 5 1 [0 0] [10 4]] (REQUEST)
r 5.041943488 _355_ RTR  --- 0 AODV 48 [0 ffffffff b6 800] [energy 99.995907 ei 0.004 es 0.000 et 0.000 er 0.000] ------- [182:255 -1:255 26 0] [0x2 5 1 [0 0] [10 4]] (REQUEST)
r 5.041943504 _49_ RTR  --- 0 AODV 48 [0 ffffffff b6 800] [energy 99.996065 ei 0.004 es 0.000 et 0.000 er 0.000] ------- [182:255 -1:255 26 0] [0x2 5 1 [0 0] [10 4]] (REQUEST)
r 5.041943529 _399_ RTR  --- 0 AODV 48 [0 ffffffff b6 800] [energy 99.995935 ei 0.004 es 0.000 et 0.000 er 0.000] ------- [182:255 -1:255 26 0] [0x2 5 1 [0 0] [10 4]] (REQUEST)
r 5.041943536 _484_ RTR  --- 0 AODV 48 [0 ffffffff b6 800] [energy 99.996049 ei 0.004 es 0.000 et 0.000 er 0.000] ------- [182:255 -1:255 26 0] [0x2 5 1 [0 0] [10 4]] (REQUEST)
r 5.041943547 _129_ RTR  --- 0 AODV 48 [0 ffffffff b6 800] [energy 99.996071 ei 0.004 es 0.000 et 0.000 er 0.000] ------- [182:255 -1:255 26 0] [0x2 5 1 [0 0] [10 4]] (REQUEST)
r 5.041943566 _322_ RTR  --- 0 AODV 48 [0 ffffffff b6 800] [energy 99.996197 ei 0.004 es 0.000 et 0.000 er 0.000] ------- [182:255 -1:255 26 0] [0x2 5 1 [0 0] [10 4]] (REQUEST)
N -t 5.042084 -n 16 -e 99.996341
N -t 5.042084 -n 216 -e 99.996049
N -t 5.042084 -n 254 -e 99.996027
N -t 5.042084 -n 266 -e 99.995993
N -t 5.042084 -n 0 -e 99.996341
N -t 5.042084 -n 51 -e 99.996135
N -t 5.042084 -n 372 -e 99.996068
N -t 5.042084 -n 443 -e 99.996341
r 5.042090853 _403_ RTR  --- 0 AODV 48 [0 ffffffff 11b 800] [energy 99.996137 ei 0.004 es 0.000 et 0.000 er 0.000] ------- [283:255 -1:255 25 0] [0x2 6 1 [0 0] [10 4]] (REQUEST)
r 5.042090855 _436_ RTR  --- 0 AODV 48 [0 ffffffff 11b 800] [energy 99.996060 ei 0.004 es 0.000 et 0.000 er 0.000] ------- [283:255 -1:255 25 0] [0x2 6 1 [0 0] [10 4]] (REQUEST)
r 5.042090913 _241_ RTR  --- 0 AODV 48 [0 ffffffff 11b 800] [energy 99.996025 ei 0.004 es 0.000 et 0.000 er 0.000] ------- [283:255 -1:255 25 0] [0x2 6 1 [0 0] [10 4]] (REQUEST)
r 5.042090943 _39_ RTR  --- 0 AODV 48 [0 ffffffff 11b 800] [energy 99.996276 ei 0.004 es 0.000 et 0.000 er 0.000] ------- [283:255 -1:255 25 0] [0x2 6 1 [0 0] [10 4]] (REQUEST)